
#------------ NVE rescale ---------------------------------------------------------------------	
	velocity 		all create ${T_run} ${seed} rot yes dist gaussian
	velocity 		all create 0.08267367665 ${seed} rot yes dist gaussian
	velocity 		all create 0.08267367665 5555 rot yes dist gaussian
	fix 			1 all nve
	fix 			2 all temp/rescale 1 ${T_run} ${T_run} 0.01 1.0
	fix 			2 all temp/rescale 1 0.08267367665 ${T_run} 0.01 1.0
	fix 			2 all temp/rescale 1 0.08267367665 0.08267367665 0.01 1.0
	timestep		${dt}
	timestep		0.002
	thermo_style  	custom step temp press etotal vol
	thermo			1000
	run             	100000	
Memory usage per processor = 1.36469 Mbytes
Step Temp Press TotEng Volume 
       0  0.082673677  -0.71664588   -7.3350923     241.0483 
    1000  0.084505836  0.065981889   -7.2060592     241.0483 
    2000   0.07938511   0.10386031   -7.2052593     241.0483 
    3000  0.083853706 -0.035134703   -7.2205257     241.0483 
    4000  0.081328857  0.075397136   -7.2058624     241.0483 
    5000  0.084026811  0.053400795   -7.2057075     241.0483 
    6000  0.080005384 -0.012984355   -7.2207688     241.0483 
    7000  0.083770726  0.050585374   -7.2056624     241.0483 
    8000  0.079886266 -0.0064153262    -7.220997     241.0483 
    9000  0.079459883 -0.0065322679   -7.2209986     241.0483 
   10000  0.079340059 -0.0067539734   -7.2210008     241.0483 
   11000  0.085061714  0.041012872   -7.2055202     241.0483 
   12000  0.079312109 -0.0016305903   -7.2205095     241.0483 
   13000  0.090331637 0.00053796796   -7.2049055     241.0483 
   14000  0.087053816  0.034139414   -7.2049139     241.0483 
   15000  0.079026886 0.0068535769   -7.2201907     241.0483 
   16000  0.079366715 -0.00030184335   -7.2201921     241.0483 
   17000  0.082852362 -0.033271673   -7.2202044     241.0483 
   18000  0.082598664 -0.031688311   -7.2202065     241.0483 
   19000  0.087996861  0.023128204   -7.2050067     241.0483 
   20000  0.085300873  0.043286275   -7.2047947     241.0483 
   21000  0.081501052  0.079262045   -7.2047923     241.0483 
   22000  0.085133245 -0.047800334   -7.2198475     241.0483 
   23000  0.078700154 0.0057951952   -7.2198494     241.0483 
   24000  0.078592859 0.0016675586   -7.2198511     241.0483 
   25000  0.082858557  -0.02928162   -7.2198409     241.0483 
   26000  0.083666686 -0.040767688   -7.2198401     241.0483 
   27000  0.080627945 -0.014164175    -7.219831     241.0483 
   28000  0.080233883 -0.0021796563   -7.2198469     241.0483 
   29000  0.084555831 -0.046586335   -7.2198484     241.0483 
   30000  0.080456809  0.081631659   -7.2048066     241.0483 
   31000  0.079517268 -0.0016179177   -7.2199068     241.0483 
   32000  0.088822604 -0.082624758   -7.2198961     241.0483 
   33000  0.083588527 -0.039996563   -7.2199164     241.0483 
   34000  0.080848727 -0.014130491   -7.2199203     241.0483 
   35000  0.079199258 -0.0020748128   -7.2199257     241.0483 
   36000  0.081090044 -0.016592924   -7.2199263     241.0483 
   37000  0.079773836 -0.0097655823   -7.2199431     241.0483 
   38000  0.077123064  0.015520961   -7.2199344     241.0483 
   39000  0.078164734 0.0065607696   -7.2199428     241.0483 
   40000  0.080358161 -0.011061555   -7.2199453     241.0483 
   41000  0.077244382  0.014884271   -7.2199493     241.0483 
   42000  0.078192122 0.0029435937   -7.2199444     241.0483 
   43000  0.080972481 -0.015552396   -7.2199583     241.0483 
   44000  0.078867607 0.0037109406   -7.2199484     241.0483 
   45000  0.078207596  0.013410093   -7.2199541     241.0483 
   46000  0.075967871  0.024804037   -7.2199609     241.0483 
   47000  0.086450463  0.032871618   -7.2049998     241.0483 
   48000  0.088439417  0.013524533    -7.205003     241.0483 
   49000  0.086927292  0.025985387   -7.2050022     241.0483 
   50000  0.086437145  0.031980537    -7.205007     241.0483 
   51000  0.073794168   0.03715003   -7.2199915     241.0483 
   52000  0.076236055  0.022198028   -7.2199929     241.0483 
   53000  0.081660352 -0.022066819   -7.2199923     241.0483 
   54000  0.081009273 -0.011879219   -7.2199873     241.0483 
   55000  0.080149397 -0.010086241   -7.2199893     241.0483 
   56000  0.079864876 -0.0031476762   -7.2199876     241.0483 
   57000  0.079859808 -0.010452991   -7.2199816     241.0483 
   58000  0.078043636   0.01015304   -7.2199753     241.0483 
   59000  0.081119956 -0.018041157   -7.2199756     241.0483 
   60000  0.082080961  0.067511279    -7.204986     241.0483 
   61000  0.082440303 -0.029136929   -7.2201121     241.0483 
   62000  0.081226074 -0.018690844   -7.2201076     241.0483 
   63000  0.075166465  0.034077946   -7.2201018     241.0483 
   64000  0.079108372 -0.0012215688   -7.2200961     241.0483 
   65000  0.080634497 -0.012549274   -7.2200872     241.0483 
   66000  0.079121491 -0.0068512293   -7.2200591     241.0483 
   67000  0.079204232 -0.0037362587   -7.2200499     241.0483 
   68000  0.085942071 -0.051483737   -7.2194059     241.0483 
   69000  0.081582584 -0.017229842   -7.2194029     241.0483 
   70000  0.077184495  0.016936758   -7.2193953     241.0483 
   71000  0.089351722 0.0079036102   -7.2042957     241.0483 
   72000  0.079196784 -0.0032170805   -7.2197665     241.0483 
   73000  0.079164714 -0.0018729547   -7.2197641     241.0483 
   74000  0.076233285  0.019920521   -7.2197616     241.0483 
   75000  0.081707419 -0.017445641    -7.219764     241.0483 
   76000  0.078495885 0.0060036389   -7.2197675     241.0483 
   77000   0.07940845 -0.0063388018   -7.2197685     241.0483 
   78000   0.08241012 -0.027519792   -7.2197664     241.0483 
   79000  0.076571638  0.022973497   -7.2197392     241.0483 
   80000   0.08301824 -0.029971005   -7.2197461     241.0483 
   81000  0.079157803 -0.0039541268   -7.2197361     241.0483 
   82000  0.081562644 -0.020330348   -7.2197344     241.0483 
   83000  0.079235414 -0.0049480136   -7.2197259     241.0483 
   84000  0.080417316 -0.011698659   -7.2197306     241.0483 
   85000  0.078041229  0.010635586   -7.2197303     241.0483 
   86000    0.0787007 0.0032346292   -7.2197229     241.0483 
   87000  0.076156279  0.022828232   -7.2197284     241.0483 
   88000  0.086925935  0.028203019   -7.2043713     241.0483 
   89000   0.08668406  0.031643955   -7.2043675     241.0483 
   90000  0.084153862 -0.042934151   -7.2197119     241.0483 
   91000  0.076337278   0.02176959    -7.219711     241.0483 
   92000  0.083412226  0.062371717   -7.2045501     241.0483 
   93000   0.08431961 -0.040344035   -7.2198411     241.0483 
   94000  0.077716093 0.0078692326   -7.2195115     241.0483 
   95000  0.081307706 -0.017871051   -7.2195184     241.0483 
   96000  0.082409612 -0.028893943   -7.2195118     241.0483 
   97000   0.07834959   0.01352342   -7.2195046     241.0483 
   98000  0.076468749  0.020765642   -7.2195057     241.0483 
   99000  0.085098372 -0.044089516   -7.2195091     241.0483 
  100000  0.083232029 -0.027479123   -7.2195096     241.0483 
Loop time of 33.3715 on 2 procs for 100000 steps with 256 atoms

Pair  time (%) = 21.9285 (65.7102)
Neigh time (%) = 0 (0)
Comm  time (%) = 9.75489 (29.2312)
Outpt time (%) = 0.00545132 (0.0163353)
Other time (%) = 1.68266 (5.04222)

Nlocal:    128 ave 128 max 128 min
Histogram: 2 0 0 0 0 0 0 0 0 0
Nghost:    1109 ave 1109 max 1109 min
Histogram: 2 0 0 0 0 0 0 0 0 0
Neighs:    5504 ave 5504 max 5504 min
Histogram: 2 0 0 0 0 0 0 0 0 0

Total # of neighbors = 11008
Ave neighs/atom = 43
Neighbor list builds = 0
Dangerous builds = 0
#	run             	1000
	unfix 			1
	unfix 			2
#------------ NVE -----------------------------------------------------------------------------	
	fix 			1 all nve
	timestep		${dt}
	timestep		0.002
	thermo_style  	custom step temp press etotal vol
	thermo			1000
	run             	250000	
Memory usage per processor = 1.36469 Mbytes
Step Temp Press TotEng Volume 
  100000  0.083232029 -0.027479123   -7.2195096     241.0483 
  101000  0.078252241 0.0075887995   -7.2195091     241.0483 
  102000   0.07912731 -0.00029518155   -7.2195156     241.0483 
  103000  0.073038441  0.050214863   -7.2195155     241.0483 
  104000  0.079416978 0.0044210337   -7.2195261     241.0483 
  105000  0.080901734  -0.01189489   -7.2195188     241.0483 
  106000  0.084827782 -0.043224814   -7.2195116     241.0483 
  107000  0.079345232 -0.0041664744   -7.2195178     241.0483 
  108000  0.083726446 -0.036540342   -7.2195188     241.0483 
  109000  0.077537942  0.013330526    -7.219525     241.0483 
  110000  0.081107892 -0.013727354   -7.2195351     241.0483 
  111000  0.081042483 -0.015289216   -7.2195366     241.0483 
  112000  0.082081828  -0.02073114   -7.2195366     241.0483 
  113000  0.080320965 -0.0072438696   -7.2195292     241.0483 
  114000  0.080888332 -0.015306523   -7.2195283     241.0483 
  115000  0.085107619 -0.051656029    -7.219532     241.0483 
  116000  0.082790434 -0.028061725   -7.2195219     241.0483 
  117000  0.080984219  -0.01076322   -7.2195191     241.0483 
  118000  0.083669588 -0.034129538   -7.2195151     241.0483 
  119000  0.079263608 0.0067886884   -7.2195199     241.0483 
  120000  0.078588471  0.013532747   -7.2195147     241.0483 
  121000  0.080507961 -0.0094481843   -7.2195133     241.0483 
  122000  0.085296525 -0.050480736   -7.2195158     241.0483 
  123000  0.079691251 -0.0070876143   -7.2195117     241.0483 
  124000  0.082151491 -0.021047171   -7.2195134     241.0483 
  125000  0.078356316  0.010190832   -7.2195103     241.0483 
  126000  0.076532427  0.024055181   -7.2195053     241.0483 
  127000  0.078035267 0.0065348264    -7.219507     241.0483 
  128000  0.078349615 0.0014352383   -7.2195083     241.0483 
  129000  0.080389709 -0.0019874864   -7.2195109     241.0483 
  130000  0.084984667 -0.050471199     -7.21951     241.0483 
  131000  0.085123876 -0.048660226   -7.2195006     241.0483 
  132000  0.082844915  -0.02678576   -7.2195052     241.0483 
  133000  0.075863546  0.034482928   -7.2195167     241.0483 
  134000  0.085857655 -0.052192112   -7.2195259     241.0483 
  135000  0.077577033   0.01662828   -7.2195242     241.0483 
  136000   0.07885843 0.0080487154   -7.2195334     241.0483 
  137000  0.075376762  0.032143771   -7.2195418     241.0483 
  138000  0.084897009 -0.044151395   -7.2195426     241.0483 
  139000  0.076107067  0.024094624   -7.2195499     241.0483 
  140000  0.083456415 -0.032536482   -7.2195495     241.0483 
  141000   0.07894334 0.0040305362   -7.2195522     241.0483 
  142000  0.078896251 0.0036313061   -7.2195546     241.0483 
  143000  0.084820743 -0.034387034   -7.2195616     241.0483 
  144000  0.079110689 0.0069288901   -7.2195608     241.0483 
  145000  0.085689713 -0.050444948   -7.2195569     241.0483 
  146000  0.075701319   0.03215117   -7.2195588     241.0483 
  147000  0.081400282 -0.012959576   -7.2195588     241.0483 
  148000  0.076820963  0.020992279   -7.2195557     241.0483 
  149000  0.078759586 7.6709372e-05   -7.2195644     241.0483 
  150000   0.07774297  0.011766302   -7.2195733     241.0483 
  151000  0.083675593 -0.038440811   -7.2195759     241.0483 
  152000  0.082479399  -0.02472039   -7.2195706     241.0483 
  153000  0.078859237 0.0024642891   -7.2195685     241.0483 
  154000  0.079059546 -0.0031891817     -7.21957     241.0483 
  155000  0.074803452   0.03286449   -7.2195618     241.0483 
  156000  0.080601696 -0.013543556   -7.2195716     241.0483 
  157000  0.077340869  0.016653598   -7.2195726     241.0483 
  158000  0.076906599  0.017312203    -7.219575     241.0483 
  159000  0.080318924 -0.0088430579   -7.2195716     241.0483 
  160000   0.08167585 -0.020926342   -7.2195712     241.0483 
  161000  0.086257999 -0.058984049   -7.2195834     241.0483 
  162000  0.078879932 0.0016165342   -7.2195761     241.0483 
  163000  0.083562232 -0.032412249   -7.2195776     241.0483 
  164000  0.083079202 -0.026981014   -7.2195731     241.0483 
  165000  0.080027842 -0.0083421544   -7.2195683     241.0483 
  166000  0.082985477 -0.030827167     -7.21957     241.0483 
  167000  0.079314661 0.0020513637   -7.2195711     241.0483 
  168000  0.084786441 -0.046472033   -7.2195713     241.0483 
  169000  0.077491305  0.011556587   -7.2195668     241.0483 
  170000  0.083557475 -0.032740576   -7.2195642     241.0483 
  171000  0.078370198 0.0091097772   -7.2195601     241.0483 
  172000  0.080881012 -0.014474657   -7.2195582     241.0483 
  173000  0.076626344  0.022447178   -7.2195622     241.0483 
  174000  0.081050985 -0.012490147   -7.2195723     241.0483 
  175000   0.08029549 -0.005670208   -7.2195629     241.0483 
  176000  0.081318988 -0.013654367   -7.2195558     241.0483 
  177000  0.078903592 0.0048043364   -7.2195411     241.0483 
  178000  0.078563747 0.0030599774   -7.2195361     241.0483 
  179000  0.079334896 0.00068897767    -7.219534     241.0483 
  180000  0.082559591 -0.024693064   -7.2195344     241.0483 
  181000  0.075551694   0.02985439   -7.2195455     241.0483 
  182000  0.083696115 -0.035834136   -7.2195531     241.0483 
  183000  0.078321887 0.0045506029   -7.2195496     241.0483 
  184000  0.085282074 -0.048699553   -7.2195538     241.0483 
  185000  0.078268288 0.0090947362    -7.219546     241.0483 
  186000  0.080058064 -0.007056263    -7.219554     241.0483 
  187000  0.081427734  -0.01772882   -7.2195608     241.0483 
  188000  0.082139118 -0.026427054   -7.2195553     241.0483 
  189000  0.074643152  0.039836334    -7.219541     241.0483 
  190000  0.080271037 -0.0027282197   -7.2195481     241.0483 
  191000  0.078290536  0.008052103   -7.2195433     241.0483 
  192000  0.080726912 -0.0081917159   -7.2195447     241.0483 
  193000  0.076767731   0.01784587   -7.2195416     241.0483 
  194000    0.0888065 -0.074459678   -7.2195418     241.0483 
  195000  0.077182569  0.012713682   -7.2195378     241.0483 
  196000  0.081547968 -0.023153006   -7.2195402     241.0483 
  197000  0.088137907 -0.074701424   -7.2195383     241.0483 
  198000  0.081835548 -0.027406491   -7.2195331     241.0483 
  199000  0.079748978 -0.0089100356   -7.2195294     241.0483 
  200000   0.08249291 -0.024474607   -7.2195263     241.0483 
  201000  0.080150123 -0.0098651924   -7.2195266     241.0483 
  202000  0.084730841 -0.046985658    -7.219532     241.0483 
  203000    0.0787247 -0.0011332629   -7.2195259     241.0483 
  204000  0.075140123  0.037587306   -7.2195235     241.0483 
  205000  0.077359643  0.016623017   -7.2195168     241.0483 
  206000  0.085738768  -0.05830082   -7.2195262     241.0483 
  207000  0.080082392 -0.0069463766   -7.2195313     241.0483 
  208000  0.081400101 -0.014615088   -7.2195243     241.0483 
  209000  0.082305332 -0.019022678   -7.2195266     241.0483 
  210000  0.081222648 -0.022892895   -7.2195265     241.0483 
  211000  0.077053458  0.016921428   -7.2195247     241.0483 
  212000  0.082746868 -0.026883395    -7.219536     241.0483 
  213000  0.079647821 0.00071126312   -7.2195328     241.0483 
  214000  0.081741267  -0.01911225    -7.219528     241.0483 
  215000  0.080357782 -0.0097986923    -7.219525     241.0483 
  216000  0.080077041 -0.0050861028   -7.2195283     241.0483 
  217000  0.080100924 -0.0084313869   -7.2195302     241.0483 
  218000  0.077405354  0.013484539   -7.2195322     241.0483 
  219000  0.080805682 -0.015858671   -7.2195347     241.0483 
  220000  0.081877651 -0.024384057   -7.2195308     241.0483 
  221000  0.078285604 0.0094155212   -7.2195292     241.0483 
  222000  0.077831365  0.012451893   -7.2195304     241.0483 
  223000  0.080682252 -0.011403163   -7.2195381     241.0483 
  224000  0.078024258  0.011412116   -7.2195373     241.0483 
  225000  0.077996441 0.0089765569   -7.2195366     241.0483 
  226000  0.083631704 -0.037923933   -7.2195389     241.0483 
  227000  0.079476632 -0.0058112161   -7.2195366     241.0483 
  228000  0.081804197  -0.02082405    -7.219532     241.0483 
  229000   0.07974362 -0.003598092   -7.2195295     241.0483 
  230000  0.076977923  0.014356055   -7.2195293     241.0483 
  231000  0.080834777 -0.017283499   -7.2195291     241.0483 
  232000  0.081354178 -0.018512233   -7.2195264     241.0483 
  233000   0.08278814 -0.033654658   -7.2195224     241.0483 
  234000  0.076439939  0.024185904   -7.2195098     241.0483 
  235000  0.081630877 -0.022961964   -7.2195125     241.0483 
  236000  0.079526635 -0.0023130641   -7.2195131     241.0483 
  237000  0.081969281 -0.022329829   -7.2195117     241.0483 
  238000  0.082245086 -0.023818852   -7.2195055     241.0483 
  239000  0.082114132 -0.023630373   -7.2195086     241.0483 
  240000  0.083653128 -0.029468268   -7.2195195     241.0483 
  241000  0.077498581  0.017528666    -7.219514     241.0483 
  242000    0.0805238 -0.011039965   -7.2195183     241.0483 
  243000  0.080372257 -0.010024171   -7.2195076     241.0483 
  244000    0.0783723 0.0063579641   -7.2195131     241.0483 
  245000  0.075124419  0.031249255   -7.2195253     241.0483 
  246000   0.07797463  0.015935614   -7.2195277     241.0483 
  247000  0.079274505 0.00052465903   -7.2195196     241.0483 
  248000  0.080560089 -0.0060337437   -7.2195211     241.0483 
  249000  0.077548037  0.015777806   -7.2195227     241.0483 
  250000  0.082240192 -0.023795308   -7.2195292     241.0483 
  251000  0.079910569 -0.0022875556   -7.2195348     241.0483 
  252000  0.075996336  0.024560932    -7.219535     241.0483 
  253000  0.078373269 0.0091464468   -7.2195352     241.0483 
  254000  0.073623104  0.044369741   -7.2195305     241.0483 
  255000  0.082685696 -0.023199392    -7.219532     241.0483 
  256000  0.080914147 -0.0065376837   -7.2195356     241.0483 
  257000    0.0792039 0.0066002427   -7.2195255     241.0483 
  258000  0.081443903  -0.01833859   -7.2195267     241.0483 
  259000   0.08336669  -0.03277969   -7.2195355     241.0483 
  260000  0.078142075   0.01358943   -7.2195301     241.0483 
  261000  0.081521629 -0.017409397   -7.2195276     241.0483 
  262000  0.081041518 -0.014986176   -7.2195224     241.0483 
  263000   0.08512744   -0.0454579   -7.2195283     241.0483 
  264000  0.081680261 -0.015691602   -7.2195249     241.0483 
  265000  0.083481733 -0.028518943   -7.2195199     241.0483 
  266000  0.079295414 0.0062429148   -7.2195247     241.0483 
  267000  0.079088513 -0.00034608511   -7.2195169     241.0483 
  268000  0.077124518  0.015494733   -7.2195176     241.0483 
  269000  0.079813936 -0.0049858139   -7.2195178     241.0483 
  270000  0.079285699 0.0023194537   -7.2195111     241.0483 
  271000  0.082816607 -0.027891323   -7.2195101     241.0483 
  272000  0.079777208 -0.0026130574   -7.2195108     241.0483 
  273000  0.081341631 -0.022038257   -7.2195103     241.0483 
  274000  0.083888824   -0.0379081   -7.2195134     241.0483 
  275000  0.076693768  0.018924359   -7.2195127     241.0483 
  276000  0.081888754  -0.02084101   -7.2195084     241.0483 
  277000  0.078609047 0.0025698854   -7.2195093     241.0483 
  278000  0.076052271  0.022692572   -7.2195001     241.0483 
  279000  0.082455406 -0.025297279   -7.2194899     241.0483 
  280000  0.077951836  0.007632006   -7.2194825     241.0483 
  281000   0.08350624 -0.033359523   -7.2194906     241.0483 
  282000  0.082039408 -0.023494872   -7.2194908     241.0483 
  283000  0.078478963 0.0021976231   -7.2194853     241.0483 
  284000  0.077120679  0.014148976   -7.2194912     241.0483 
  285000  0.082893537 -0.024445819   -7.2194929     241.0483 
  286000  0.073338046  0.044099511   -7.2194893     241.0483 
  287000  0.084792177 -0.046635963   -7.2195005     241.0483 
  288000  0.078874119  0.001125299   -7.2194927     241.0483 
  289000  0.077622344  0.013832804   -7.2194968     241.0483 
  290000  0.079146878 -0.0038154427   -7.2194983     241.0483 
  291000  0.082255386 -0.026026302   -7.2195046     241.0483 
  292000  0.079515563 -0.0014512281   -7.2194997     241.0483 
  293000  0.084212574 -0.039662104   -7.2194945     241.0483 
  294000  0.084119727 -0.039518997   -7.2194928     241.0483 
  295000  0.081118308 -0.018088232   -7.2194962     241.0483 
  296000  0.080706706  -0.01505513   -7.2194976     241.0483 
  297000  0.080919745 -0.018854013   -7.2194995     241.0483 
  298000   0.07966329 -0.0057190226   -7.2195036     241.0483 
  299000  0.083242503 -0.032936879   -7.2195105     241.0483 
  300000  0.082002464 -0.024505314   -7.2195055     241.0483 
  301000  0.077710117  0.012058436    -7.219504     241.0483 
  302000  0.082160669 -0.024116457   -7.2195128     241.0483 
  303000  0.081691378  -0.02082605   -7.2195074     241.0483 
  304000  0.076786692   0.02434078   -7.2195119     241.0483 
  305000  0.079380287 0.00061185936   -7.2195186     241.0483 
  306000  0.079034389 -0.0014256336   -7.2195197     241.0483 
  307000  0.076194005  0.024170362   -7.2195308     241.0483 
  308000  0.079103711 -0.0020145216   -7.2195259     241.0483 
  309000  0.084070288 -0.042677904   -7.2195206     241.0483 
  310000   0.08269555 -0.034071901   -7.2195117     241.0483 
  311000  0.078178301 0.0062372707   -7.2195072     241.0483 
  312000    0.0797703 -0.0034248495    -7.219502     241.0483 
  313000  0.082313634 -0.023761097   -7.2195038     241.0483 
  314000  0.081691337  -0.01625861   -7.2195034     241.0483 
  315000  0.080942713 -0.014612477   -7.2195052     241.0483 
  316000  0.078253186 0.0055365876   -7.2195095     241.0483 
  317000  0.075186836  0.032735563   -7.2195079     241.0483 
  318000  0.083180555 -0.031177164   -7.2195136     241.0483 
  319000  0.086327714 -0.054639524   -7.2195063     241.0483 
  320000  0.076310737  0.034328776   -7.2195013     241.0483 
  321000  0.082393733 -0.019989389   -7.2195014     241.0483 
  322000  0.080968992 -0.018518862    -7.219498     241.0483 
  323000  0.082416638 -0.025396621   -7.2194998     241.0483 
  324000  0.079754441 -0.0072359421   -7.2194978     241.0483 
  325000    0.0778286  0.012750414   -7.2194977     241.0483 
  326000  0.083588808 -0.030174987   -7.2194937     241.0483 
  327000  0.080415655 -0.010325069   -7.2194898     241.0483 
  328000  0.080226899 -0.0097423082   -7.2194909     241.0483 
  329000  0.081206259 -0.021254371   -7.2195013     241.0483 
  330000  0.075021761  0.031128204   -7.2194982     241.0483 
  331000  0.082256106  -0.02703638   -7.2195143     241.0483 
  332000  0.082766816 -0.029764867   -7.2195067     241.0483 
  333000  0.074041088  0.038926667   -7.2194974     241.0483 
  334000  0.083436423 -0.032604112   -7.2194969     241.0483 
  335000  0.083502305 -0.037229316    -7.219496     241.0483 
  336000  0.080885898 -0.014292693   -7.2194898     241.0483 
  337000  0.076299051  0.031700394   -7.2194862     241.0483 
  338000  0.079324304 0.0041312388   -7.2194804     241.0483 
  339000  0.085117365 -0.047816695   -7.2194882     241.0483 
  340000  0.083888943 -0.038368979   -7.2194885     241.0483 
  341000  0.076834835  0.023478516   -7.2194941     241.0483 
  342000    0.0781193 0.0088019783   -7.2194928     241.0483 
  343000  0.083242965 -0.031728542   -7.2194968     241.0483 
  344000  0.076107256  0.023523428   -7.2194973     241.0483 
  345000  0.081270084 -0.016455956   -7.2195059     241.0483 
  346000  0.084237838 -0.043321141   -7.2195131     241.0483 
  347000  0.084226529 -0.042896419   -7.2195067     241.0483 
  348000  0.077325685  0.010904771   -7.2195006     241.0483 
  349000  0.079435924 4.673584e-05   -7.2194922     241.0483 
  350000  0.077776028 0.0095456131   -7.2194916     241.0483 
Loop time of 83.8162 on 2 procs for 250000 steps with 256 atoms

Pair  time (%) = 54.8959 (65.4956)
Neigh time (%) = 0.00341606 (0.00407566)
Comm  time (%) = 25.2833 (30.1651)
Outpt time (%) = 0.0121471 (0.0144925)
Other time (%) = 3.6215 (4.32077)

Nlocal:    128 ave 134 max 122 min
Histogram: 1 0 0 0 0 0 0 0 0 1
Nghost:    1109 ave 1115 max 1103 min
Histogram: 1 0 0 0 0 0 0 0 0 1
Neighs:    5504 ave 5758 max 5250 min
Histogram: 1 0 0 0 0 0 0 0 0 1

Total # of neighbors = 11008
Ave neighs/atom = 43
Neighbor list builds = 6
Dangerous builds = 0
#	run             	10000
	unfix 			1
#------SED-------------------------------------------------------------------------
label loop_fft
variable ifft loop ${num_ffts}
variable ifft loop 1

log 	log_SED_${iseed}_${ifft}.lammps
log 	log_SED_5_${ifft}.lammps
log 	log_SED_5_1.lammps
