
#------------ NVE rescale ---------------------------------------------------------------------	
	velocity 		all create ${T_run} ${seed} rot yes dist gaussian
	velocity 		all create 0.08267367665 ${seed} rot yes dist gaussian
	velocity 		all create 0.08267367665 22222222 rot yes dist gaussian
	fix 			1 all nve
	fix 			2 all temp/rescale 1 ${T_run} ${T_run} 0.01 1.0
	fix 			2 all temp/rescale 1 0.08267367665 ${T_run} 0.01 1.0
	fix 			2 all temp/rescale 1 0.08267367665 0.08267367665 0.01 1.0
	timestep		${dt}
	timestep		0.002
	thermo_style  	custom step temp press etotal vol
	thermo			1000
	run             	100000	
Memory usage per processor = 1.36469 Mbytes
Step Temp Press TotEng Volume 
       0  0.082673677  -0.71664588   -7.3350923     241.0483 
    1000   0.08728513  0.010347581   -7.2088561     241.0483 
    2000  0.083509049  0.057559213   -7.2088033     241.0483 
    3000  0.089464895 -0.011467836   -7.2088031     241.0483 
    4000  0.085039249  0.017350922   -7.2088327     241.0483 
    5000  0.087247136 0.0051686662   -7.2088347     241.0483 
    6000  0.085223287 -0.068780491    -7.223857     241.0483 
    7000  0.079808544  -0.03069306   -7.2239498     241.0483 
    8000  0.085802879  0.013748695   -7.2087221     241.0483 
    9000  0.084774107   0.02717771   -7.2087298     241.0483 
   10000  0.079800323  0.070591489   -7.2087269     241.0483 
   11000  0.079281962  -0.02055387   -7.2239398     241.0483 
   12000   0.08081758  0.050543911   -7.2089296     241.0483 
   13000  0.079939397  0.060987945   -7.2089254     241.0483 
   14000  0.081634756  0.047547649   -7.2089271     241.0483 
   15000  0.082673677  0.039640087   -7.2090793     241.0483 
   16000  0.080257945  0.057357622   -7.2090828     241.0483 
   17000  0.074699709  0.014810467   -7.2242121     241.0483 
   18000  0.076435055 -0.00036203141   -7.2241769     241.0483 
   19000  0.083045958  0.034481189   -7.2091742     241.0483 
   20000  0.088696825 -0.0035606501   -7.2091785     241.0483 
   21000  0.079282931  0.069124895   -7.2091655     241.0483 
   22000   0.07816291  0.078863001   -7.2091588     241.0483 
   23000  0.087555424 -8.0975135e-05    -7.209163     241.0483 
   24000  0.079952678 -0.032004405   -7.2242502     241.0483 
   25000  0.080871838   0.05501392   -7.2091572     241.0483 
   26000  0.086745049 0.0095587434   -7.2091552     241.0483 
   27000  0.084232205  0.025205305   -7.2091558     241.0483 
   28000  0.079191687  0.067035444   -7.2091471     241.0483 
   29000  0.086318153 0.0099281628   -7.2091515     241.0483 
   30000  0.083046661  0.037018565    -7.209143     241.0483 
   31000  0.082458091  0.036139005   -7.2091423     241.0483 
   32000  0.082490416  0.037544894   -7.2091377     241.0483 
   33000  0.081272401  0.045542291    -7.209134     241.0483 
   34000  0.083968344  0.027724566   -7.2091379     241.0483 
   35000  0.080888745  0.051429275   -7.2091418     241.0483 
   36000  0.081501755  0.044416196   -7.2091405     241.0483 
   37000  0.083639489  0.029312271   -7.2091408     241.0483 
   38000  0.081897734  0.045091319   -7.2091348     241.0483 
   39000  0.088863646 -0.015497123   -7.2091362     241.0483 
   40000  0.084099185   0.01988154   -7.2091381     241.0483 
   41000  0.088104325 -0.0042332893   -7.2091395     241.0483 
   42000  0.079962107  0.053578094   -7.2091302     241.0483 
   43000   0.08610232 0.0064492413   -7.2091271     241.0483 
   44000  0.078350293  0.071373228   -7.2091324     241.0483 
   45000  0.086158376 0.0071171039   -7.2091339     241.0483 
   46000  0.088691476 -0.008533556   -7.2091321     241.0483 
   47000  0.077635985  0.075767781   -7.2091259     241.0483 
   48000  0.084479179    0.0224879   -7.2095149     241.0483 
   49000  0.081543084  0.039080161   -7.2095144     241.0483 
   50000  0.085689476 0.0095629895   -7.2095181     241.0483 
   51000  0.083931191  0.021516808   -7.2095182     241.0483 
   52000  0.080830367  0.044911987   -7.2095171     241.0483 
   53000  0.084446498  0.010987778   -7.2095212     241.0483 
   54000  0.085631187 0.0070868803   -7.2095197     241.0483 
   55000  0.080032766  0.054365344   -7.2095165     241.0483 
   56000   0.07664055   0.08318073   -7.2095146     241.0483 
   57000  0.083328482  0.025508947   -7.2095101     241.0483 
   58000  0.082090324   0.04076627   -7.2095081     241.0483 
   59000  0.080734802  0.046182255   -7.2095009     241.0483 
   60000  0.084957506  0.016048093   -7.2095091     241.0483 
   61000  0.086833574 -0.00022604687   -7.2095088     241.0483 
   62000  0.082988454  0.027958446   -7.2095067     241.0483 
   63000   0.08293748  0.029350926   -7.2096695     241.0483 
   64000  0.082691175  0.031573498   -7.2096744     241.0483 
   65000   0.08291602  0.030841659   -7.2096774     241.0483 
   66000  0.085687931 0.0068212455   -7.2096889     241.0483 
   67000  0.084065847  0.022628357   -7.2096842     241.0483 
   68000   0.08641024 0.00054187371   -7.2096849     241.0483 
   69000  0.077246117  0.075302383   -7.2096795     241.0483 
   70000  0.084001457  0.021088954   -7.2096798     241.0483 
   71000  0.086033387 0.0039851654   -7.2096821     241.0483 
   72000  0.084293266  0.021518015   -7.2096758     241.0483 
   73000  0.077124562  0.078627142   -7.2096732     241.0483 
   74000  0.084453129  0.015139809   -7.2096701     241.0483 
   75000  0.083598766  0.020669977   -7.2096677     241.0483 
   76000  0.085266138 0.0086474381   -7.2096693     241.0483 
   77000  0.081704423  0.035599102   -7.2096699     241.0483 
   78000  0.076812742 -0.015358358   -7.2246587     241.0483 
   79000  0.082358218  0.031233655   -7.2097123     241.0483 
   80000  0.084303893  0.020344464     -7.20971     241.0483 
   81000  0.083101836  0.029070946   -7.2097117     241.0483 
   82000  0.078824726  0.057374331   -7.2097136     241.0483 
   83000  0.074369024 0.0035908159    -7.224742     241.0483 
   84000  0.075934942 -0.0091408139   -7.2247404     241.0483 
   85000  0.086887953 0.0014412597    -7.209613     241.0483 
   86000  0.085402243 0.0094074262   -7.2096106     241.0483 
   87000  0.085658332  0.007372213   -7.2096158     241.0483 
   88000   0.08320778  0.029836638   -7.2096146     241.0483 
   89000  0.086778702 0.0007204629    -7.209627     241.0483 
   90000  0.084314031  0.020291338   -7.2096269     241.0483 
   91000  0.081073813  0.051299524   -7.2096275     241.0483 
   92000  0.084915731  0.017526081   -7.2096362     241.0483 
   93000   0.07859562  0.059544266   -7.2096433     241.0483 
   94000  0.082037016  0.038902416   -7.2096417     241.0483 
   95000  0.085187693  0.012627619   -7.2096385     241.0483 
   96000  0.087128561 -0.0076627148   -7.2096433     241.0483 
   97000  0.087141778 -0.0060059144   -7.2096466     241.0483 
   98000  0.086967635 -0.00043617034   -7.2096422     241.0483 
   99000   0.08093318  0.047828271    -7.209645     241.0483 
  100000  0.084696793  0.015477227    -7.209443     241.0483 
Loop time of 34.1391 on 2 procs for 100000 steps with 256 atoms

Pair  time (%) = 21.8478 (63.9963)
Neigh time (%) = 0 (0)
Comm  time (%) = 10.5578 (30.9258)
Outpt time (%) = 0.004601 (0.0134772)
Other time (%) = 1.72893 (5.06436)

Nlocal:    128 ave 128 max 128 min
Histogram: 2 0 0 0 0 0 0 0 0 0
Nghost:    1109 ave 1109 max 1109 min
Histogram: 2 0 0 0 0 0 0 0 0 0
Neighs:    5504 ave 5504 max 5504 min
Histogram: 2 0 0 0 0 0 0 0 0 0

Total # of neighbors = 11008
Ave neighs/atom = 43
Neighbor list builds = 0
Dangerous builds = 0
#	run             	1000
	unfix 			1
	unfix 			2
#------------ NVE -----------------------------------------------------------------------------	
	fix 			1 all nve
	timestep		${dt}
	timestep		0.002
	thermo_style  	custom step temp press etotal vol
	thermo			1000
	run             	250000	
Memory usage per processor = 1.36469 Mbytes
Step Temp Press TotEng Volume 
  100000  0.084696793  0.015477227    -7.209443     241.0483 
  101000  0.085429813 0.0057658579   -7.2094403     241.0483 
  102000  0.081187166  0.043123376   -7.2094422     241.0483 
  103000  0.084685634  0.014809942   -7.2094432     241.0483 
  104000  0.093637899 -0.054989787   -7.2094479     241.0483 
  105000  0.080212417  0.050294931     -7.20944     241.0483 
  106000  0.082637419  0.033888723   -7.2094334     241.0483 
  107000   0.08525558  0.014518018   -7.2094326     241.0483 
  108000  0.082270286  0.035755403   -7.2094331     241.0483 
  109000  0.083213067  0.028262764   -7.2094322     241.0483 
  110000  0.086209364 0.00015355604   -7.2094238     241.0483 
  111000  0.085571341 0.0085996783   -7.2094172     241.0483 
  112000  0.083775291  0.024251758    -7.209415     241.0483 
  113000  0.086499106  0.001649974   -7.2094182     241.0483 
  114000  0.082460749   0.03467854    -7.209416     241.0483 
  115000  0.083775948  0.020425183   -7.2094134     241.0483 
  116000  0.088382695 -0.015687303   -7.2094167     241.0483 
  117000  0.081711565  0.039195038   -7.2094038     241.0483 
  118000  0.083538699  0.023896588   -7.2094002     241.0483 
  119000    0.0841858  0.018371665   -7.2093994     241.0483 
  120000  0.081001859  0.044273755   -7.2094037     241.0483 
  121000  0.081354605  0.044610424   -7.2094108     241.0483 
  122000  0.081809674  0.038961602   -7.2094088     241.0483 
  123000  0.085163458  0.012538142   -7.2094152     241.0483 
  124000  0.078540344  0.065431016   -7.2094123     241.0483 
  125000  0.086264319 0.0049365294   -7.2094166     241.0483 
  126000   0.08460859  0.019990801   -7.2094317     241.0483 
  127000  0.082962558  0.030811298   -7.2094325     241.0483 
  128000   0.08410745  0.023124648   -7.2094348     241.0483 
  129000  0.084943321  0.011983314   -7.2094299     241.0483 
  130000  0.082135029  0.036350601   -7.2094287     241.0483 
  131000   0.08211009  0.041207682   -7.2094191     241.0483 
  132000  0.081299424  0.048795421   -7.2094206     241.0483 
  133000   0.08641289  0.008406787   -7.2094244     241.0483 
  134000  0.089997495 -0.022847832   -7.2094353     241.0483 
  135000  0.081744783  0.046254348   -7.2094337     241.0483 
  136000  0.083141785   0.03239212   -7.2094409     241.0483 
  137000  0.091217193 -0.035123689    -7.209435     241.0483 
  138000  0.085036255  0.017856565   -7.2094396     241.0483 
  139000  0.080527092  0.056803058    -7.209438     241.0483 
  140000  0.083507007  0.031157202   -7.2094421     241.0483 
  141000  0.084359822  0.026151825   -7.2094319     241.0483 
  142000  0.086176813 0.0077363847   -7.2094447     241.0483 
  143000  0.084926853  0.017281197   -7.2094479     241.0483 
  144000  0.084490164  0.020489034   -7.2094491     241.0483 
  145000  0.083067367  0.033137257   -7.2094445     241.0483 
  146000  0.078237405   0.06576709   -7.2094458     241.0483 
  147000  0.086587859 0.0033018758   -7.2094548     241.0483 
  148000  0.082839231  0.036975629   -7.2094583     241.0483 
  149000  0.085760381  0.011539319   -7.2094642     241.0483 
  150000   0.08196908  0.041172263    -7.209458     241.0483 
  151000   0.08683764 0.0024826603   -7.2094644     241.0483 
  152000    0.0820715  0.046246911   -7.2094796     241.0483 
  153000  0.081670605  0.045694503   -7.2094841     241.0483 
  154000  0.082407783  0.038985384    -7.209481     241.0483 
  155000  0.088449307 -0.015980076   -7.2094826     241.0483 
  156000   0.08375436  0.028041816   -7.2094836     241.0483 
  157000  0.079798467  0.061403999   -7.2094854     241.0483 
  158000  0.086420562 0.0020606788   -7.2094897     241.0483 
  159000  0.091880981  -0.04132166   -7.2094853     241.0483 
  160000  0.080726164  0.049579944   -7.2094833     241.0483 
  161000  0.079817566  0.059212875   -7.2094888     241.0483 
  162000  0.082870469  0.027499587   -7.2094734     241.0483 
  163000  0.087317403 -0.0067519743   -7.2094674     241.0483 
  164000  0.086644778 0.0049693818   -7.2094615     241.0483 
  165000  0.083250919  0.023783872   -7.2094711     241.0483 
  166000  0.080660848  0.048003524   -7.2094698     241.0483 
  167000  0.079732238  0.057028909   -7.2094742     241.0483 
  168000  0.083635234  0.026890094   -7.2094685     241.0483 
  169000  0.078815639   0.06670406   -7.2094709     241.0483 
  170000  0.084886288  0.010433211   -7.2094783     241.0483 
  171000  0.087216724 -0.0039970626   -7.2094825     241.0483 
  172000  0.080139418  0.055336005   -7.2094829     241.0483 
  173000  0.085926106  0.013156347   -7.2094835     241.0483 
  174000  0.079780314      0.05327   -7.2094761     241.0483 
  175000  0.087892498 -0.0056046067   -7.2094708     241.0483 
  176000  0.084431109  0.019073651   -7.2094682     241.0483 
  177000  0.083866427  0.023096015   -7.2094674     241.0483 
  178000  0.084965254  0.014781945   -7.2094613     241.0483 
  179000  0.077210923  0.080220061   -7.2094606     241.0483 
  180000  0.082841195  0.036110019   -7.2094658     241.0483 
  181000  0.082824867  0.034513074   -7.2094634     241.0483 
  182000  0.081328093    0.0463007   -7.2094638     241.0483 
  183000  0.087376006 -0.0074342656   -7.2094617     241.0483 
  184000  0.083211389  0.028917591   -7.2094516     241.0483 
  185000  0.085021437  0.014209977   -7.2094573     241.0483 
  186000   0.08864073 -0.013988544   -7.2094647     241.0483 
  187000  0.078067668  0.071243268   -7.2094678     241.0483 
  188000  0.081241259   0.04311932   -7.2094697     241.0483 
  189000  0.084162625  0.019759693    -7.209469     241.0483 
  190000  0.086354613  0.003409288   -7.2094632     241.0483 
  191000  0.087517518 -0.008630304    -7.209466     241.0483 
  192000   0.08449716   0.01755629   -7.2094575     241.0483 
  193000  0.079096568  0.056465746   -7.2094551     241.0483 
  194000  0.085223797  0.011447716   -7.2094547     241.0483 
  195000   0.08888583 -0.017935037   -7.2094565     241.0483 
  196000  0.078261843  0.069921052   -7.2094449     241.0483 
  197000   0.08273832   0.03275767   -7.2094481     241.0483 
  198000  0.084291044   0.01814587   -7.2094507     241.0483 
  199000  0.091415206 -0.036360094   -7.2094465     241.0483 
  200000   0.08816742 -0.011633764    -7.209445     241.0483 
  201000  0.085201467   0.01237058   -7.2094352     241.0483 
  202000  0.080931855  0.047394278   -7.2094323     241.0483 
  203000  0.082125172  0.032186949   -7.2094295     241.0483 
  204000  0.085844563  0.010224398   -7.2094297     241.0483 
  205000  0.079504328   0.06051379   -7.2094097     241.0483 
  206000  0.088065328 -0.0056877608   -7.2094244     241.0483 
  207000  0.084326941  0.024582857   -7.2094213     241.0483 
  208000  0.082572478  0.031556083     -7.20942     241.0483 
  209000  0.084031976  0.022381115   -7.2094173     241.0483 
  210000  0.087235881 0.0019977729   -7.2094197     241.0483 
  211000  0.079157989  0.062097414   -7.2094207     241.0483 
  212000  0.089159899 -0.014708109   -7.2094157     241.0483 
  213000  0.085672693  0.010743699   -7.2094142     241.0483 
  214000  0.081910527  0.037027137    -7.209417     241.0483 
  215000  0.083677162  0.030828168   -7.2094166     241.0483 
  216000  0.086470443 0.0034719787   -7.2094217     241.0483 
  217000  0.082954633  0.031647131   -7.2094129     241.0483 
  218000  0.081768329  0.041812161   -7.2094148     241.0483 
  219000  0.084919608  0.013326547   -7.2094172     241.0483 
  220000  0.088235341 -0.014502199   -7.2094247     241.0483 
  221000  0.083172215  0.028565774   -7.2094245     241.0483 
  222000  0.085047517  0.017708697    -7.209426     241.0483 
  223000  0.081784619  0.040362404   -7.2094168     241.0483 
  224000  0.084455911  0.018588045   -7.2094252     241.0483 
  225000  0.077823512  0.076966079   -7.2094184     241.0483 
  226000  0.084787281  0.018495451    -7.209428     241.0483 
  227000  0.084576109  0.023191327   -7.2094183     241.0483 
  228000  0.084021635  0.021749908   -7.2094215     241.0483 
  229000  0.082574228  0.035319258   -7.2094105     241.0483 
  230000  0.084141103  0.026119605   -7.2094056     241.0483 
  231000   0.08384779  0.033038582   -7.2094021     241.0483 
  232000  0.085916903  0.011495261   -7.2094008     241.0483 
  233000  0.076070022  0.090008497   -7.2094008     241.0483 
  234000  0.083259704  0.030634514   -7.2094039     241.0483 
  235000  0.085988724 0.0042817483   -7.2094138     241.0483 
  236000  0.087123294 0.0015819906   -7.2094235     241.0483 
  237000  0.084040462  0.025186387   -7.2094268     241.0483 
  238000  0.086103749 0.0086208993   -7.2094247     241.0483 
  239000  0.085650398  0.012824347   -7.2094232     241.0483 
  240000  0.080915352  0.046356849   -7.2094223     241.0483 
  241000  0.075615947  0.090284732   -7.2094193     241.0483 
  242000  0.091194029 -0.033066953   -7.2094323     241.0483 
  243000  0.084102624  0.025173823   -7.2094164     241.0483 
  244000  0.080976673  0.044166322   -7.2094104     241.0483 
  245000  0.087823593 -0.0064928049   -7.2094127     241.0483 
  246000  0.081404083  0.049051029   -7.2094041     241.0483 
  247000   0.08441643  0.022116121   -7.2093962     241.0483 
  248000  0.082225447  0.036164704   -7.2094014     241.0483 
  249000  0.082985064  0.028393047   -7.2094057     241.0483 
  250000   0.08282127  0.029271562    -7.209401     241.0483 
  251000  0.083291408  0.028638348   -7.2094017     241.0483 
  252000  0.084038199  0.026504832   -7.2093954     241.0483 
  253000  0.081518965  0.039355444   -7.2093911     241.0483 
  254000  0.090815794  -0.02985819   -7.2094005     241.0483 
  255000  0.081333208  0.049252376   -7.2093981     241.0483 
  256000  0.082901355  0.031924011   -7.2093964     241.0483 
  257000  0.084868218  0.021231614   -7.2093944     241.0483 
  258000  0.082247914  0.038229152   -7.2093907     241.0483 
  259000  0.083203919  0.028121562   -7.2093892     241.0483 
  260000  0.086121289 0.0085359763   -7.2093933     241.0483 
  261000  0.083711067  0.026391863   -7.2093983     241.0483 
  262000   0.08554159  0.016230852   -7.2094193     241.0483 
  263000  0.081160624  0.056054211    -7.209419     241.0483 
  264000  0.081046743  0.052538412   -7.2094205     241.0483 
  265000  0.087160659 0.00092884081   -7.2094158     241.0483 
  266000   0.08639504 0.0050018776   -7.2094162     241.0483 
  267000  0.083998484  0.024533042   -7.2094191     241.0483 
  268000  0.085149669  0.023175704   -7.2094194     241.0483 
  269000  0.081059884  0.051532217   -7.2094201     241.0483 
  270000  0.090373673 -0.019397398    -7.209419     241.0483 
  271000  0.080877356  0.054171624   -7.2094138     241.0483 
  272000  0.081988709  0.040747866   -7.2094174     241.0483 
  273000  0.081664247  0.040999838   -7.2094224     241.0483 
  274000  0.089053236  -0.01455509   -7.2094296     241.0483 
  275000  0.080034029  0.061857884   -7.2094301     241.0483 
  276000  0.080693733  0.054545379   -7.2094286     241.0483 
  277000  0.085046347  0.013343149   -7.2094278     241.0483 
  278000  0.083719266  0.026159698   -7.2094295     241.0483 
  279000  0.087227269 0.00039647282   -7.2094306     241.0483 
  280000  0.084564846  0.012746174   -7.2094316     241.0483 
  281000  0.082555775  0.034295399   -7.2094228     241.0483 
  282000  0.083251566  0.029621877   -7.2094161     241.0483 
  283000  0.088593676 -0.0057943568   -7.2094196     241.0483 
  284000  0.082873882  0.030710343   -7.2094167     241.0483 
  285000  0.081160061  0.044138848   -7.2094191     241.0483 
  286000  0.085097353  0.013934207   -7.2094218     241.0483 
  287000  0.078956075  0.064375843    -7.209427     241.0483 
  288000  0.086756065 0.0013560669   -7.2094317     241.0483 
  289000  0.082926791  0.030487511   -7.2094348     241.0483 
  290000  0.084557724  0.023484649   -7.2094362     241.0483 
  291000  0.083253115  0.031766496   -7.2094419     241.0483 
  292000  0.079186232  0.064175279   -7.2094456     241.0483 
  293000  0.084472633  0.023081407   -7.2094351     241.0483 
  294000  0.085133153  0.011995863   -7.2094386     241.0483 
  295000  0.085243679  0.012035948   -7.2094427     241.0483 
  296000  0.086169917 0.0043814064   -7.2094494     241.0483 
  297000  0.085030499  0.017247019   -7.2094485     241.0483 
  298000  0.082067123   0.03298475   -7.2094502     241.0483 
  299000  0.081830168  0.040416492   -7.2094465     241.0483 
  300000  0.084176999  0.023404502   -7.2094382     241.0483 
  301000  0.083934136  0.027087377   -7.2094376     241.0483 
  302000  0.085994109 0.0089767731   -7.2094474     241.0483 
  303000  0.078774078  0.069246502   -7.2094442     241.0483 
  304000  0.086076408   0.01193192   -7.2094497     241.0483 
  305000  0.080864182  0.048656076   -7.2094462     241.0483 
  306000   0.08670589  0.008370544   -7.2094415     241.0483 
  307000  0.081404836  0.043471185   -7.2094409     241.0483 
  308000  0.085850575 0.0067729908   -7.2094489     241.0483 
  309000  0.090128095 -0.025553883   -7.2094506     241.0483 
  310000  0.079569755  0.061789663    -7.209441     241.0483 
  311000  0.084933095  0.016627923    -7.209445     241.0483 
  312000  0.082401845  0.037058539   -7.2094388     241.0483 
  313000  0.082244799  0.034794868   -7.2094281     241.0483 
  314000  0.087696336 -0.0075707876   -7.2094293     241.0483 
  315000  0.081473373  0.043695279   -7.2094249     241.0483 
  316000  0.080647365    0.0482675   -7.2094284     241.0483 
  317000  0.086091551 0.0063550659   -7.2094238     241.0483 
  318000  0.081212431  0.045945068    -7.209423     241.0483 
  319000  0.082708476   0.03678996   -7.2094272     241.0483 
  320000   0.08565812  0.012913775   -7.2094216     241.0483 
  321000   0.08307769  0.030102046   -7.2094214     241.0483 
  322000  0.087700923 -0.0034082036   -7.2094191     241.0483 
  323000  0.080925294   0.04246494   -7.2094165     241.0483 
  324000  0.077689849  0.069859507   -7.2094202     241.0483 
  325000  0.085420426  0.016489372    -7.209424     241.0483 
  326000  0.086782218 0.0011695319    -7.209416     241.0483 
  327000  0.083049048  0.033095525   -7.2094202     241.0483 
  328000   0.08352735  0.023212347   -7.2094195     241.0483 
  329000  0.080542687  0.051571684   -7.2094176     241.0483 
  330000  0.085821152 0.0056803878   -7.2094256     241.0483 
  331000  0.083130527  0.028150119   -7.2094203     241.0483 
  332000  0.082795791  0.029623335   -7.2094269     241.0483 
  333000  0.082435851  0.040911765    -7.209434     241.0483 
  334000  0.081826741  0.037685345   -7.2094374     241.0483 
  335000  0.084267148  0.020081453   -7.2094383     241.0483 
  336000  0.080975105  0.049140441   -7.2094302     241.0483 
  337000  0.086140283  0.013349765   -7.2094312     241.0483 
  338000  0.082740274  0.033829794    -7.209429     241.0483 
  339000  0.081811378  0.038825453   -7.2094162     241.0483 
  340000  0.087920659 -0.0065069231   -7.2094274     241.0483 
  341000   0.08152515  0.045470028   -7.2094359     241.0483 
  342000  0.079790365  0.054895974   -7.2094324     241.0483 
  343000  0.081705433  0.038561846   -7.2094277     241.0483 
  344000  0.084466056  0.023679173   -7.2094321     241.0483 
  345000   0.07954236  0.060246018   -7.2094354     241.0483 
  346000  0.084768932  0.021669683   -7.2094415     241.0483 
  347000   0.08455226  0.020843099   -7.2094257     241.0483 
  348000   0.08702799   0.00377657   -7.2094287     241.0483 
  349000  0.078651161  0.064231539   -7.2094368     241.0483 
  350000  0.085687744  0.014828826   -7.2094406     241.0483 
Loop time of 85.7697 on 2 procs for 250000 steps with 256 atoms

Pair  time (%) = 54.4162 (63.4446)
Neigh time (%) = 0.00910711 (0.0106181)
Comm  time (%) = 27.6185 (32.2008)
Outpt time (%) = 0.0128144 (0.0149405)
Other time (%) = 3.71296 (4.32899)

Nlocal:    128 ave 132 max 124 min
Histogram: 1 0 0 0 0 0 0 0 0 1
Nghost:    1109 ave 1113 max 1105 min
Histogram: 1 0 0 0 0 0 0 0 0 1
Neighs:    5504 ave 5679 max 5329 min
Histogram: 1 0 0 0 0 0 0 0 0 1

Total # of neighbors = 11008
Ave neighs/atom = 43
Neighbor list builds = 16
Dangerous builds = 0
#	run             	10000
	unfix 			1
#------SED-------------------------------------------------------------------------
label loop_fft
variable ifft loop ${num_ffts}
variable ifft loop 1

log 	log_SED_${iseed}_${ifft}.lammps
log 	log_SED_22_${ifft}.lammps
log 	log_SED_22_1.lammps
