
#------------ NVE rescale ---------------------------------------------------------------------	
	velocity 		all create ${T_run} ${seed} rot yes dist gaussian
	velocity 		all create 0.08267367665 ${seed} rot yes dist gaussian
	velocity 		all create 0.08267367665 12121212 rot yes dist gaussian
	fix 			1 all nve
	fix 			2 all temp/rescale 1 ${T_run} ${T_run} 0.01 1.0
	fix 			2 all temp/rescale 1 0.08267367665 ${T_run} 0.01 1.0
	fix 			2 all temp/rescale 1 0.08267367665 0.08267367665 0.01 1.0
	timestep		${dt}
	timestep		0.002
	thermo_style  	custom step temp press etotal vol
	thermo			1000
	run             	100000	
Memory usage per processor = 1.36469 Mbytes
Step Temp Press TotEng Volume 
       0  0.082673677  -0.71664588   -7.3350923     241.0483 
    1000  0.088157072 -0.045209113   -7.2171239     241.0483 
    2000  0.077287316  0.028896533   -7.2185905     241.0483 
    3000  0.091943461 -0.0024776308   -7.2032393     241.0483 
    4000  0.080669722 -0.00098643356   -7.2181897     241.0483 
    5000  0.082910446 -0.019214858   -7.2181865     241.0483 
    6000  0.079908759 0.0072885352   -7.2181876     241.0483 
    7000  0.085358735 -0.038978213   -7.2181907     241.0483 
    8000  0.080152022 0.0019861764   -7.2185003     241.0483 
    9000  0.081411262 -0.0063194223   -7.2185033     241.0483 
   10000  0.081705408 -0.013843217   -7.2184922     241.0483 
   11000  0.089894501  0.015422447   -7.2035357     241.0483 
   12000  0.080424859 0.00074616111   -7.2186432     241.0483 
   13000  0.084416725  0.062968347    -7.203524     241.0483 
   14000  0.088244105   0.02983058   -7.2035184     241.0483 
   15000  0.083474013  0.069212441   -7.2035177     241.0483 
   16000  0.085027819  0.056104871   -7.2035122     241.0483 
   17000  0.088760242  0.020099272   -7.2035185     241.0483 
   18000   0.08781691  0.032778763   -7.2035112     241.0483 
   19000  0.082265127 -0.012453547   -7.2189799     241.0483 
   20000   0.08363003  0.067335715    -7.203822     241.0483 
   21000  0.083559073  0.058291727   -7.2038172     241.0483 
   22000  0.083363912 -0.026466511   -7.2192062     241.0483 
   23000   0.08615716  0.041227227   -7.2042096     241.0483 
   24000  0.080836112 -0.0036558234   -7.2192566     241.0483 
   25000  0.087631918  0.028197156   -7.2041593     241.0483 
   26000   0.08835893  0.023695939   -7.2041578     241.0483 
   27000  0.077728328  0.017756931   -7.2193943     241.0483 
   28000  0.080962899 -0.0048094925   -7.2193917     241.0483 
   29000  0.080875733 -0.0091398547   -7.2193882     241.0483 
   30000  0.080035152 -0.0047208213    -7.219389     241.0483 
   31000  0.081417296 -0.015483796   -7.2193864     241.0483 
   32000   0.07879358 0.0037220821   -7.2193765     241.0483 
   33000  0.083971507 -0.039424751   -7.2193811     241.0483 
   34000  0.080612128 -0.0069787054   -7.2193786     241.0483 
   35000  0.075772354  0.028697954   -7.2193787     241.0483 
   36000  0.081179523 -0.011907488   -7.2193832     241.0483 
   37000  0.087606711  0.031045881   -7.2042971     241.0483 
   38000  0.081839528 -0.019996189   -7.2193714     241.0483 
   39000  0.082147217 -0.021499437   -7.2193769     241.0483 
   40000  0.079505403 0.0018765673   -7.2193766     241.0483 
   41000  0.077514689  0.012031188   -7.2193769     241.0483 
   42000  0.081091118 -0.010374923   -7.2193825     241.0483 
   43000  0.081640274 -0.015301069   -7.2193882     241.0483 
   44000  0.089757958  0.009996715   -7.2044375     241.0483 
   45000  0.074199463  0.039223608    -7.219414     241.0483 
   46000  0.080846202 -0.013323451   -7.2194194     241.0483 
   47000  0.081985448 -0.015726479   -7.2194166     241.0483 
   48000  0.076299331  0.027667668   -7.2195317     241.0483 
   49000  0.082901764 -0.027726732   -7.2195287     241.0483 
   50000  0.092227717 -0.0095543525   -7.2045414     241.0483 
   51000  0.081465194  0.073619177   -7.2045384     241.0483 
   52000  0.084833914 -0.046858169   -7.2196654     241.0483 
   53000  0.081952873 -0.025061571     -7.21967     241.0483 
   54000  0.082637352  -0.02530242   -7.2195956     241.0483 
   55000  0.077419279  0.018489396   -7.2195825     241.0483 
   56000  0.077391168  0.012662149   -7.2195798     241.0483 
   57000  0.082186061 -0.024852826   -7.2194852     241.0483 
   58000  0.076675801  0.020547552    -7.219486     241.0483 
   59000  0.082813905  0.069446616   -7.2044733     241.0483 
   60000  0.080817956 -0.013815683   -7.2198264     241.0483 
   61000  0.083707959 -0.039671841   -7.2198316     241.0483 
   62000  0.075536173  0.021032175   -7.2198359     241.0483 
   63000  0.088775077   0.01148864   -7.2047474     241.0483 
   64000  0.079663957 -0.00062630617   -7.2198683     241.0483 
   65000  0.082064772 -0.024860964    -7.219873     241.0483 
   66000  0.080078161 -0.0033438673   -7.2198666     241.0483 
   67000  0.080396001 -0.012679752   -7.2198622     241.0483 
   68000  0.072830666  0.051925204    -7.219864     241.0483 
   69000  0.080186204 -0.0099802798   -7.2201914     241.0483 
   70000  0.080948636  0.075045803   -7.2047107     241.0483 
   71000  0.086468541  0.035204179   -7.2047139     241.0483 
   72000  0.080996606  0.073886102    -7.204708     241.0483 
   73000  0.086871251  0.026177986   -7.2047099     241.0483 
   74000   0.07980754 -0.0064841145   -7.2196715     241.0483 
   75000   0.08150007 -0.019253107   -7.2196728     241.0483 
   76000  0.081417607 -0.013993806   -7.2196745     241.0483 
   77000  0.077901172 0.0063344013   -7.2196754     241.0483 
   78000  0.084817576 -0.045297631   -7.2196799     241.0483 
   79000  0.081842225  0.065729073   -7.2043962     241.0483 
   80000  0.084004628  0.054751174   -7.2043908     241.0483 
   81000  0.084811345  0.047065165   -7.2043917     241.0483 
   82000   0.08331303    0.0644955   -7.2044037     241.0483 
   83000  0.077267773  0.015897639   -7.2195266     241.0483 
   84000  0.091874416 -0.0081745173   -7.2044101     241.0483 
   85000   0.07946721 0.0041610964   -7.2196312     241.0483 
   86000  0.078643494  0.005505279   -7.2196296     241.0483 
   87000  0.087491731  0.025631038   -7.2046458     241.0483 
   88000  0.080268885 -0.0082403365   -7.2201589     241.0483 
   89000  0.083178388  -0.03083723   -7.2201596     241.0483 
   90000  0.088661745  0.016709534   -7.2051398     241.0483 
   91000  0.081751787  0.069635471   -7.2051349     241.0483 
   92000  0.080064576 -0.016049569    -7.220237     241.0483 
   93000  0.088790139  0.016602229   -7.2051789     241.0483 
   94000  0.078124768  0.011187778   -7.2201243     241.0483 
   95000  0.085558663  0.038159896   -7.2051416     241.0483 
   96000  0.081880967  0.063563786   -7.2051431     241.0483 
   97000  0.080693989 -0.021750927   -7.2208553     241.0483 
   98000   0.07778655 0.0039471096   -7.2208525     241.0483 
   99000   0.08315409 -0.037177309   -7.2207965     241.0483 
  100000  0.074947664  0.025958134    -7.220792     241.0483 
Loop time of 33.831 on 2 procs for 100000 steps with 256 atoms

Pair  time (%) = 21.8114 (64.4718)
Neigh time (%) = 0 (0)
Comm  time (%) = 10.2534 (30.3078)
Outpt time (%) = 0.00615203 (0.0181846)
Other time (%) = 1.75998 (5.20227)

Nlocal:    128 ave 128 max 128 min
Histogram: 2 0 0 0 0 0 0 0 0 0
Nghost:    1109 ave 1109 max 1109 min
Histogram: 2 0 0 0 0 0 0 0 0 0
Neighs:    5504 ave 5504 max 5504 min
Histogram: 2 0 0 0 0 0 0 0 0 0

Total # of neighbors = 11008
Ave neighs/atom = 43
Neighbor list builds = 0
Dangerous builds = 0
#	run             	1000
	unfix 			1
	unfix 			2
#------------ NVE -----------------------------------------------------------------------------	
	fix 			1 all nve
	timestep		${dt}
	timestep		0.002
	thermo_style  	custom step temp press etotal vol
	thermo			1000
	run             	250000	
Memory usage per processor = 1.36469 Mbytes
Step Temp Press TotEng Volume 
  100000  0.074947664  0.025958134    -7.220792     241.0483 
  101000  0.080181479 -0.017719737   -7.2207897     241.0483 
  102000  0.080936196 -0.021590446   -7.2207987     241.0483 
  103000  0.079041964 -0.0077350079   -7.2208069     241.0483 
  104000  0.080284974 -0.015453137   -7.2208044     241.0483 
  105000  0.084291359  -0.04618428   -7.2208111     241.0483 
  106000  0.078638814 -0.0044074096   -7.2208046     241.0483 
  107000   0.08004344 -0.013838436   -7.2208066     241.0483 
  108000  0.075350659  0.021857856   -7.2208011     241.0483 
  109000  0.080781484 -0.024498007    -7.220796     241.0483 
  110000  0.080331327   -0.0154651   -7.2207937     241.0483 
  111000  0.077102609 0.0086337593   -7.2207942     241.0483 
  112000  0.079766058 -0.0097520577   -7.2207874     241.0483 
  113000  0.080552422 -0.019648896   -7.2207909     241.0483 
  114000  0.077000958 0.0063010985    -7.220793     241.0483 
  115000  0.080181701 -0.016356556    -7.220792     241.0483 
  116000  0.084748739 -0.054779209   -7.2207927     241.0483 
  117000  0.076598107   0.01154414   -7.2207828     241.0483 
  118000  0.078703789 -0.0046781794   -7.2207861     241.0483 
  119000  0.077101575 0.0080036537   -7.2207954     241.0483 
  120000  0.079049011 -0.010323465   -7.2207962     241.0483 
  121000  0.080289323 -0.014442285   -7.2207935     241.0483 
  122000  0.079399204 -0.010354552   -7.2207894     241.0483 
  123000  0.080865253 -0.020403285   -7.2207845     241.0483 
  124000  0.081662853 -0.026853263   -7.2207786     241.0483 
  125000  0.076549445  0.014847859   -7.2207781     241.0483 
  126000  0.085368495 -0.049496381   -7.2207912     241.0483 
  127000  0.077476181 0.0018286066   -7.2207887     241.0483 
  128000  0.082066552 -0.029172048   -7.2207867     241.0483 
  129000  0.080088784 -0.012213867   -7.2207847     241.0483 
  130000  0.079853507 -0.0093883416    -7.220784     241.0483 
  131000  0.082622082 -0.034615923    -7.220779     241.0483 
  132000  0.083027093 -0.042935713   -7.2207813     241.0483 
  133000  0.077759852 0.0049227698   -7.2207753     241.0483 
  134000  0.079754392 -0.0095067365   -7.2207811     241.0483 
  135000  0.080390304 -0.016630514   -7.2207852     241.0483 
  136000  0.079026201 -0.005266658    -7.220786     241.0483 
  137000  0.075868078  0.016958062   -7.2207924     241.0483 
  138000  0.077876842 0.0021523759   -7.2207997     241.0483 
  139000  0.081148255 -0.023261405   -7.2207942     241.0483 
  140000  0.079271317 -0.014953024   -7.2208012     241.0483 
  141000  0.080402744   -0.0198121   -7.2208029     241.0483 
  142000  0.082735495 -0.037832022   -7.2208008     241.0483 
  143000  0.079595055 -0.012809863   -7.2207915     241.0483 
  144000  0.076688386   0.01089899   -7.2207837     241.0483 
  145000  0.083484356 -0.039304651   -7.2207859     241.0483 
  146000  0.077023987 0.0084967983   -7.2207827     241.0483 
  147000  0.082108189 -0.029583351    -7.220784     241.0483 
  148000   0.07468168  0.030601272    -7.220775     241.0483 
  149000  0.080081591 -0.012251884   -7.2207827     241.0483 
  150000  0.081857625 -0.026390843   -7.2207964     241.0483 
  151000  0.085383307 -0.059059853   -7.2207926     241.0483 
  152000  0.080547398 -0.012624295   -7.2207931     241.0483 
  153000  0.075958927  0.024918833   -7.2207855     241.0483 
  154000  0.081269904 -0.018675967   -7.2207707     241.0483 
  155000  0.078520451 -0.0018701254   -7.2207809     241.0483 
  156000  0.082291033 -0.032319448   -7.2207817     241.0483 
  157000  0.076189465  0.021007778   -7.2207889     241.0483 
  158000   0.08191445 -0.028674896   -7.2207923     241.0483 
  159000  0.084873924 -0.050639915   -7.2207959     241.0483 
  160000  0.078962516 -0.0059327947   -7.2207965     241.0483 
  161000   0.07691534   0.01363724   -7.2208033     241.0483 
  162000  0.080576365 -0.015884313   -7.2208047     241.0483 
  163000  0.077604752  0.009841174   -7.2208003     241.0483 
  164000  0.074067251  0.038035385   -7.2207943     241.0483 
  165000  0.081007868 -0.022282513   -7.2207974     241.0483 
  166000  0.084816701 -0.049830799   -7.2208003     241.0483 
  167000  0.077357708  0.014564117    -7.220801     241.0483 
  168000  0.078519041 0.0018544406   -7.2207967     241.0483 
  169000   0.07652974  0.016634486   -7.2207842     241.0483 
  170000  0.078482905 0.0035022699   -7.2207864     241.0483 
  171000  0.079547633 -0.0052042273   -7.2207845     241.0483 
  172000  0.078584771 0.00093809669   -7.2207956     241.0483 
  173000  0.082712605 -0.033007687   -7.2207975     241.0483 
  174000  0.083878845 -0.034392188   -7.2207903     241.0483 
  175000  0.076317388  0.025032709   -7.2207887     241.0483 
  176000  0.072864256  0.041383394   -7.2207776     241.0483 
  177000  0.082945892 -0.037937394    -7.220784     241.0483 
  178000   0.07599601   0.02472852   -7.2207786     241.0483 
  179000  0.079971417 -0.010337788   -7.2207794     241.0483 
  180000  0.077362761 0.0076895629   -7.2207696     241.0483 
  181000  0.083324424 -0.037505396   -7.2207855     241.0483 
  182000  0.075457899  0.022966766   -7.2207914     241.0483 
  183000  0.080682157 -0.019392346   -7.2207952     241.0483 
  184000  0.077732813 0.0061671356   -7.2208018     241.0483 
  185000  0.078079084 0.0049881337    -7.220802     241.0483 
  186000  0.082042049  -0.03492038   -7.2207972     241.0483 
  187000  0.079800282 -0.017067578   -7.2207992     241.0483 
  188000  0.079442629 -0.0095247681   -7.2207973     241.0483 
  189000  0.085187888 -0.050315389   -7.2208024     241.0483 
  190000  0.077841049 0.0055457481   -7.2208034     241.0483 
  191000  0.082278333 -0.030201968   -7.2208057     241.0483 
  192000  0.080781251 -0.023278194   -7.2208086     241.0483 
  193000  0.076228357  0.018003161   -7.2208107     241.0483 
  194000  0.075742254  0.024573878   -7.2208019     241.0483 
  195000  0.081936261 -0.027681714   -7.2208053     241.0483 
  196000   0.07995511 -0.014754874   -7.2208021     241.0483 
  197000  0.079581708 -0.0090802179   -7.2208065     241.0483 
  198000   0.07843188 -0.00076224931   -7.2208067     241.0483 
  199000  0.083860688 -0.039326597   -7.2208077     241.0483 
  200000  0.073834677  0.039422225   -7.2208029     241.0483 
  201000  0.081517906 -0.022529641   -7.2208035     241.0483 
  202000  0.078963973 0.00079467308   -7.2208031     241.0483 
  203000  0.075305814  0.020710037   -7.2207983     241.0483 
  204000  0.082010347  -0.03114356   -7.2208088     241.0483 
  205000  0.085541088 -0.063080888   -7.2208096     241.0483 
  206000  0.076687951   0.01545485   -7.2208122     241.0483 
  207000  0.080622131 -0.016387254   -7.2208124     241.0483 
  208000  0.085330744 -0.055898577   -7.2208227     241.0483 
  209000  0.077825036 0.0041930366   -7.2208125     241.0483 
  210000  0.075844874  0.020322245   -7.2208099     241.0483 
  211000  0.083518546 -0.041058287   -7.2208154     241.0483 
  212000   0.07729039 0.0046315584   -7.2208065     241.0483 
  213000   0.08099578 -0.022754595   -7.2208112     241.0483 
  214000  0.078124615 0.0026545393   -7.2208115     241.0483 
  215000  0.080185721 -0.013689018   -7.2208183     241.0483 
  216000  0.081648632 -0.025136957   -7.2208192     241.0483 
  217000  0.078038174 0.0061428445   -7.2208184     241.0483 
  218000  0.075843847  0.021222212   -7.2208125     241.0483 
  219000  0.081084075  -0.02121488   -7.2208138     241.0483 
  220000  0.082667413 -0.036421233     -7.22082     241.0483 
  221000  0.075776659  0.019208804    -7.220815     241.0483 
  222000  0.075208514  0.026044924   -7.2208128     241.0483 
  223000  0.082536865 -0.031400439   -7.2208199     241.0483 
  224000  0.079958406 -0.012376196   -7.2208155     241.0483 
  225000  0.083587207 -0.044264742   -7.2208237     241.0483 
  226000  0.082729623  -0.03633338   -7.2208221     241.0483 
  227000  0.078487365 0.00050838174   -7.2208166     241.0483 
  228000  0.083092911 -0.035409367   -7.2208226     241.0483 
  229000   0.07746259  0.010026872   -7.2208237     241.0483 
  230000  0.077919695 0.0048330557   -7.2208263     241.0483 
  231000  0.078927901 -0.0018213235   -7.2208186     241.0483 
  232000  0.077804964 0.0036703845   -7.2208208     241.0483 
  233000  0.083978083 -0.045279197   -7.2208287     241.0483 
  234000  0.080935098 -0.018853752   -7.2208226     241.0483 
  235000  0.080686773 -0.013347232   -7.2208252     241.0483 
  236000  0.076351599    0.0163701   -7.2208267     241.0483 
  237000  0.082079934  -0.03128591   -7.2208259     241.0483 
  238000  0.078987921 -0.0087049179   -7.2208272     241.0483 
  239000  0.081038678 -0.019892071   -7.2208287     241.0483 
  240000  0.078733683 -0.0034318221    -7.220826     241.0483 
  241000  0.082440355 -0.034183317   -7.2208262     241.0483 
  242000  0.084431402 -0.046574782   -7.2208339     241.0483 
  243000  0.077237085 0.0081517412   -7.2208275     241.0483 
  244000  0.078181819 -0.0022429387   -7.2208261     241.0483 
  245000  0.076692844 0.0083671459   -7.2208266     241.0483 
  246000  0.084797082 -0.051601286   -7.2208311     241.0483 
  247000  0.084271855 -0.043149977    -7.220831     241.0483 
  248000  0.076975827  0.013574077   -7.2208274     241.0483 
  249000  0.075971782  0.023516142   -7.2208241     241.0483 
  250000  0.084311892 -0.047105147   -7.2208262     241.0483 
  251000  0.082412126 -0.041131802   -7.2208345     241.0483 
  252000  0.078467287 -0.0032443828   -7.2208426     241.0483 
  253000  0.078597927 -0.0030268493   -7.2208447     241.0483 
  254000  0.078508099 -0.0029265264   -7.2208431     241.0483 
  255000  0.076619946  0.017296412   -7.2208473     241.0483 
  256000  0.080546071  -0.01798832   -7.2208359     241.0483 
  257000  0.087423015 -0.077263592   -7.2208532     241.0483 
  258000  0.076059563  0.017512198   -7.2208488     241.0483 
  259000  0.081036874 -0.026153466   -7.2208536     241.0483 
  260000  0.085458182 -0.059544908   -7.2208495     241.0483 
  261000  0.076624322  0.010468696   -7.2208504     241.0483 
  262000  0.076210348  0.015344161   -7.2208571     241.0483 
  263000  0.078610966 -0.00097462933   -7.2208583     241.0483 
  264000  0.080549107  -0.01906759   -7.2208608     241.0483 
  265000  0.079007328 -0.0045800886   -7.2208587     241.0483 
  266000   0.07992578 -0.012099473   -7.2208555     241.0483 
  267000   0.07786576 0.0038653268   -7.2208478     241.0483 
  268000  0.082147079 -0.032045542   -7.2208439     241.0483 
  269000  0.076262074   0.01077114   -7.2208415     241.0483 
  270000  0.081723012 -0.032474857   -7.2208531     241.0483 
  271000  0.080768021 -0.020113748   -7.2208592     241.0483 
  272000  0.076801168  0.012057655   -7.2208676     241.0483 
  273000  0.081652916 -0.026196002   -7.2208644     241.0483 
  274000  0.078844276 -0.0054904943   -7.2208608     241.0483 
  275000  0.074884244  0.025557653   -7.2208564     241.0483 
  276000   0.08492934 -0.058266072   -7.2208718     241.0483 
  277000  0.081015111 -0.022868812   -7.2208608     241.0483 
  278000  0.074639508  0.027436842   -7.2208588     241.0483 
  279000   0.07776072 0.0024104054   -7.2208655     241.0483 
  280000  0.084769057 -0.054494988   -7.2208779     241.0483 
  281000  0.077744277 0.0027662116   -7.2208737     241.0483 
  282000  0.078270178 -0.0016776409   -7.2208681     241.0483 
  283000  0.081975664 -0.031471697    -7.220869     241.0483 
  284000  0.080576771 -0.019509721   -7.2208691     241.0483 
  285000  0.080768078 -0.015062495   -7.2208755     241.0483 
  286000  0.079614838 -0.0048515297   -7.2208731     241.0483 
  287000  0.075497823  0.017320019   -7.2208716     241.0483 
  288000  0.081598905 -0.022073883   -7.2208706     241.0483 
  289000  0.079582055 -0.0067547365   -7.2208704     241.0483 
  290000   0.07979293 -0.008448014   -7.2208704     241.0483 
  291000  0.081877841 -0.026015889   -7.2208758     241.0483 
  292000  0.080810284 -0.022413425   -7.2208874     241.0483 
  293000  0.078251773 0.0011131114   -7.2208803     241.0483 
  294000  0.083195968 -0.031412941   -7.2208861     241.0483 
  295000  0.079613844 -0.0040453141   -7.2208849     241.0483 
  296000  0.078785442 -0.002286685   -7.2208827     241.0483 
  297000  0.082603614  -0.03616017   -7.2208805     241.0483 
  298000  0.079480414 -0.0094158763   -7.2208801     241.0483 
  299000  0.084336302 -0.047221797   -7.2208831     241.0483 
  300000  0.082964692 -0.043053762   -7.2208832     241.0483 
  301000  0.081773444 -0.026934056   -7.2208798     241.0483 
  302000  0.080458024 -0.010831963   -7.2208722     241.0483 
  303000  0.078773838 0.0021029099   -7.2208725     241.0483 
  304000  0.077884466 0.0050701725   -7.2208754     241.0483 
  305000  0.078782964 -0.0064364757   -7.2208929     241.0483 
  306000   0.07886448 -0.0072186522   -7.2208834     241.0483 
  307000  0.084377552 -0.045587848   -7.2208872     241.0483 
  308000  0.079049125 -0.0028210033    -7.220879     241.0483 
  309000  0.074968194  0.033295864   -7.2208832     241.0483 
  310000  0.079068114 -0.0077042199   -7.2208901     241.0483 
  311000  0.079995175 -0.014994807   -7.2208957     241.0483 
  312000  0.080126842 -0.019027919   -7.2208928     241.0483 
  313000  0.080526497 -0.018601393   -7.2209003     241.0483 
  314000  0.078070875 0.0015518596   -7.2208853     241.0483 
  315000  0.079781181 -0.010052473   -7.2208982     241.0483 
  316000  0.081467182 -0.027856867   -7.2208972     241.0483 
  317000  0.082151835 -0.034263587   -7.2209028     241.0483 
  318000  0.079419749 -0.0068358531   -7.2209118     241.0483 
  319000  0.077316998  0.011050088   -7.2209102     241.0483 
  320000  0.080152159 -0.017017087   -7.2209131     241.0483 
  321000  0.079442203  -0.01218028    -7.220914     241.0483 
  322000  0.082380987 -0.036966493   -7.2209154     241.0483 
  323000  0.081911981  -0.03136559   -7.2209249     241.0483 
  324000  0.079791979 -0.015439924   -7.2209297     241.0483 
  325000  0.080908186 -0.021338831   -7.2209275     241.0483 
  326000  0.080942876  -0.02112622   -7.2209309     241.0483 
  327000  0.076941656  0.010328805   -7.2209322     241.0483 
  328000  0.080316634 -0.015547947   -7.2209375     241.0483 
  329000  0.081075878 -0.025962203   -7.2209344     241.0483 
  330000  0.073049105  0.044407184   -7.2209223     241.0483 
  331000  0.079850508 -0.013095813   -7.2209143     241.0483 
  332000  0.079954016 -0.013315645   -7.2209194     241.0483 
  333000  0.077986144 0.0038148972   -7.2209238     241.0483 
  334000   0.07959146 -0.0090908199   -7.2209242     241.0483 
  335000  0.082951807 -0.041077659   -7.2209196     241.0483 
  336000  0.078438288 -0.0023082797   -7.2209135     241.0483 
  337000  0.081005632 -0.022059926   -7.2209165     241.0483 
  338000  0.079908413 -0.012728516   -7.2209192     241.0483 
  339000  0.081951132 -0.026944728   -7.2209175     241.0483 
  340000   0.07778743 0.0081704816   -7.2209106     241.0483 
  341000  0.074852996  0.033373943   -7.2209094     241.0483 
  342000   0.08005179 -0.010927676   -7.2209072     241.0483 
  343000  0.080411826 -0.017898744   -7.2209058     241.0483 
  344000  0.079071529 -0.0080769231   -7.2209082     241.0483 
  345000  0.074510151  0.034083858    -7.220903     241.0483 
  346000  0.082720507 -0.033668662   -7.2209059     241.0483 
  347000  0.078506547 -6.4168275e-05   -7.2208935     241.0483 
  348000  0.076671591  0.016086961   -7.2208992     241.0483 
  349000  0.081216128 -0.018278931   -7.2209003     241.0483 
  350000  0.080590005   -0.0181858   -7.2208984     241.0483 
Loop time of 84.8276 on 2 procs for 250000 steps with 256 atoms

Pair  time (%) = 54.664 (64.4413)
Neigh time (%) = 0.00282359 (0.00332862)
Comm  time (%) = 26.3669 (31.0829)
Outpt time (%) = 0.0199736 (0.0235461)
Other time (%) = 3.77394 (4.44895)

Nlocal:    128 ave 135 max 121 min
Histogram: 1 0 0 0 0 0 0 0 0 1
Nghost:    1109 ave 1116 max 1102 min
Histogram: 1 0 0 0 0 0 0 0 0 1
Neighs:    5504 ave 5800 max 5208 min
Histogram: 1 0 0 0 0 0 0 0 0 1

Total # of neighbors = 11008
Ave neighs/atom = 43
Neighbor list builds = 5
Dangerous builds = 0
#	run             	10000
	unfix 			1
#------SED-------------------------------------------------------------------------
label loop_fft
variable ifft loop ${num_ffts}
variable ifft loop 1

log 	log_SED_${iseed}_${ifft}.lammps
log 	log_SED_12_${ifft}.lammps
log 	log_SED_12_1.lammps
