	reset_timestep  	0
	fix 			1 all nve
	dump 			vel all custom ${w_step} dump_${iseed}_${ifft}.vel vx vy vz
	dump 			vel all custom 32 dump_${iseed}_${ifft}.vel vx vy vz
	dump 			vel all custom 32 dump_24_${ifft}.vel vx vy vz
	dump 			vel all custom 32 dump_24_1.vel vx vy vz
	dump_modify 		vel sort id
	dump 			pos all custom ${w_step} dump_${iseed}_${ifft}.pos xu yu zu
	dump 			pos all custom 32 dump_${iseed}_${ifft}.pos xu yu zu
	dump 			pos all custom 32 dump_24_${ifft}.pos xu yu zu
	dump 			pos all custom 32 dump_24_1.pos xu yu zu
	dump_modify 		pos sort id
	thermo_style 		custom step temp press vol
	thermo			5000
	timestep		${dt}
	timestep		0.002
	run			${w_total}
	run			131072
Memory usage per processor = 1.64334 Mbytes
Step Temp Press Volume 
       0   0.08145002 -0.021971677     241.0483 
    5000  0.079057572 -0.0019695774     241.0483 
   10000   0.07839929 0.0065040623     241.0483 
   15000  0.077478123  0.014818132     241.0483 
   20000  0.085836284 -0.052694288     241.0483 
   25000  0.079989369 -0.0078305324     241.0483 
   30000  0.074428918  0.037800372     241.0483 
   35000   0.07750499 0.0097986181     241.0483 
   40000  0.078897191 0.0017705979     241.0483 
   45000  0.081647291 -0.017441558     241.0483 
   50000  0.076392304  0.019377314     241.0483 
   55000  0.080996965 -0.015997856     241.0483 
   60000  0.080637041 -0.011514163     241.0483 
   65000  0.082179546 -0.028929484     241.0483 
   70000  0.078606671 -0.0045760607     241.0483 
   75000  0.074756783  0.030266566     241.0483 
   80000  0.083702348 -0.037693199     241.0483 
   85000  0.079766623 -0.011517386     241.0483 
   90000  0.082424424 -0.028164779     241.0483 
   95000  0.077422878  0.016985865     241.0483 
  100000  0.078909107 -0.0025632755     241.0483 
  105000  0.083695918 -0.039386167     241.0483 
  110000  0.084121616 -0.040446873     241.0483 
  115000  0.084008191 -0.041139716     241.0483 
  120000  0.079995767 -0.0057701268     241.0483 
  125000  0.085981583 -0.048281223     241.0483 
  130000  0.078578768  0.013496139     241.0483 
  131072  0.079704979 -0.0045159486     241.0483 
Loop time of 62.3265 on 2 procs for 131072 steps with 256 atoms

Pair  time (%) = 28.075 (45.0451)
Neigh time (%) = 0.00282896 (0.00453893)
Comm  time (%) = 20.771 (33.3262)
Outpt time (%) = 11.0586 (17.743)
Other time (%) = 2.41902 (3.88121)

Nlocal:    128 ave 131 max 125 min
Histogram: 1 0 0 0 0 0 0 0 0 1
Nghost:    1109 ave 1112 max 1106 min
Histogram: 1 0 0 0 0 0 0 0 0 1
Neighs:    5504 ave 5641 max 5367 min
Histogram: 1 0 0 0 0 0 0 0 0 1

Total # of neighbors = 11008
Ave neighs/atom = 43
Neighbor list builds = 5
Dangerous builds = 0
	unfix			1
	undump			vel
	undump			pos

next ifft
jump lmp.in.sed.24 loop_fft

