	reset_timestep  	0
	fix 			1 all nve
	dump 			vel all custom ${w_step} dump_${iseed}_${ifft}.vel vx vy vz
	dump 			vel all custom 32 dump_${iseed}_${ifft}.vel vx vy vz
	dump 			vel all custom 32 dump_2_${ifft}.vel vx vy vz
	dump 			vel all custom 32 dump_2_1.vel vx vy vz
	dump_modify 		vel sort id
	dump 			pos all custom ${w_step} dump_${iseed}_${ifft}.pos xu yu zu
	dump 			pos all custom 32 dump_${iseed}_${ifft}.pos xu yu zu
	dump 			pos all custom 32 dump_2_${ifft}.pos xu yu zu
	dump 			pos all custom 32 dump_2_1.pos xu yu zu
	dump_modify 		pos sort id
	thermo_style 		custom step temp press vol
	thermo			5000
	timestep		${dt}
	timestep		0.002
	run			${w_total}
	run			131072
Memory usage per processor = 1.64298 Mbytes
Step Temp Press Volume 
       0  0.082239583  0.015311539     241.0483 
    5000  0.081251563  0.023288545     241.0483 
   10000  0.082287774  0.010255598     241.0483 
   15000  0.078287249  0.046820188     241.0483 
   20000  0.081779978  0.022162601     241.0483 
   25000  0.086378726 -0.014803674     241.0483 
   30000  0.079978657  0.039629296     241.0483 
   35000  0.084339324 0.0022651862     241.0483 
   40000  0.084563151 -0.0013223702     241.0483 
   45000  0.082182992  0.017109334     241.0483 
   50000  0.079527581  0.039427248     241.0483 
   55000  0.082725716 0.0098247011     241.0483 
   60000  0.078442184  0.042630515     241.0483 
   65000  0.083316752  0.010945175     241.0483 
   70000  0.079497145  0.037325307     241.0483 
   75000  0.082211589  0.015189215     241.0483 
   80000  0.084242441 -0.0018570873     241.0483 
   85000  0.079321782  0.041098368     241.0483 
   90000  0.077240207  0.057507011     241.0483 
   95000  0.076638016  0.058494341     241.0483 
  100000  0.082601142  0.012078353     241.0483 
  105000  0.085660836 -0.0049435249     241.0483 
  110000  0.085043022 -0.00029185935     241.0483 
  115000  0.079164627  0.035933121     241.0483 
  120000  0.082340559  0.014553349     241.0483 
  125000  0.080210284  0.030925948     241.0483 
  130000  0.083220951 0.0086769471     241.0483 
  131072  0.082558717   0.01130822     241.0483 
Loop time of 64.0801 on 2 procs for 131072 steps with 256 atoms

Pair  time (%) = 29.6389 (46.2529)
Neigh time (%) = 0.0034306 (0.00535362)
Comm  time (%) = 15.7633 (24.5994)
Outpt time (%) = 15.2987 (23.8743)
Other time (%) = 3.37581 (5.2681)

Nlocal:    128 ave 129 max 127 min
Histogram: 1 0 0 0 0 0 0 0 0 1
Nghost:    1109 ave 1110 max 1108 min
Histogram: 1 0 0 0 0 0 0 0 0 1
Neighs:    5504 ave 5547 max 5461 min
Histogram: 1 0 0 0 0 0 0 0 0 1

Total # of neighbors = 11008
Ave neighs/atom = 43
Neighbor list builds = 6
Dangerous builds = 0
	unfix			1
	undump			vel
	undump			pos

next ifft
jump lmp.in.sed.2 loop_fft

