	reset_timestep  	0
	fix 			1 all nve
	dump 			vel all custom ${w_step} dump_${iseed}_${ifft}.vel vx vy vz
	dump 			vel all custom 32 dump_${iseed}_${ifft}.vel vx vy vz
	dump 			vel all custom 32 dump_25_${ifft}.vel vx vy vz
	dump 			vel all custom 32 dump_25_1.vel vx vy vz
	dump_modify 		vel sort id
	dump 			pos all custom ${w_step} dump_${iseed}_${ifft}.pos xu yu zu
	dump 			pos all custom 32 dump_${iseed}_${ifft}.pos xu yu zu
	dump 			pos all custom 32 dump_25_${ifft}.pos xu yu zu
	dump 			pos all custom 32 dump_25_1.pos xu yu zu
	dump_modify 		pos sort id
	thermo_style 		custom step temp press vol
	thermo			5000
	timestep		${dt}
	timestep		0.002
	run			${w_total}
	run			131072
Memory usage per processor = 1.64296 Mbytes
Step Temp Press Volume 
       0   0.08273701 -0.013035369     241.0483 
    5000  0.080449338 0.0028443102     241.0483 
   10000  0.081446117 -0.004833137     241.0483 
   15000  0.078744233  0.018543759     241.0483 
   20000  0.085814728 -0.040536935     241.0483 
   25000  0.075261323  0.045917542     241.0483 
   30000  0.083268102 -0.022463736     241.0483 
   35000  0.078527947  0.016857829     241.0483 
   40000  0.084549551 -0.026883815     241.0483 
   45000   0.08202483 -0.0091545269     241.0483 
   50000  0.079542094  0.011983526     241.0483 
   55000  0.082870684  -0.01739933     241.0483 
   60000  0.080785435 -0.00060733469     241.0483 
   65000  0.079075368  0.010947566     241.0483 
   70000  0.078138777  0.021349917     241.0483 
   75000  0.083449726 -0.020838769     241.0483 
   80000  0.086328613  -0.04259453     241.0483 
   85000  0.080244539 0.0051010476     241.0483 
   90000  0.077886537  0.021903505     241.0483 
   95000  0.079079507  0.016871881     241.0483 
  100000  0.081332694 -0.001979516     241.0483 
  105000  0.079932795 0.0056057551     241.0483 
  110000  0.082154172 -0.0098428345     241.0483 
  115000  0.080115546 0.0059532191     241.0483 
  120000  0.081660996 -0.0096460568     241.0483 
  125000  0.081250053 -0.0032937236     241.0483 
  130000  0.082593159 -0.017005951     241.0483 
  131072  0.081286622 -0.0030787893     241.0483 
Loop time of 65.7312 on 2 procs for 131072 steps with 256 atoms

Pair  time (%) = 28.4197 (43.2362)
Neigh time (%) = 0.00281703 (0.00428569)
Comm  time (%) = 25.0324 (38.083)
Outpt time (%) = 9.78971 (14.8935)
Other time (%) = 2.48658 (3.78296)

Nlocal:    128 ave 130 max 126 min
Histogram: 1 0 0 0 0 0 0 0 0 1
Nghost:    1109 ave 1111 max 1107 min
Histogram: 1 0 0 0 0 0 0 0 0 1
Neighs:    5504 ave 5600 max 5408 min
Histogram: 1 0 0 0 0 0 0 0 0 1

Total # of neighbors = 11008
Ave neighs/atom = 43
Neighbor list builds = 5
Dangerous builds = 0
	unfix			1
	undump			vel
	undump			pos

next ifft
jump lmp.in.sed.25 loop_fft

