	reset_timestep  	0
	fix 			1 all nve
	dump 			vel all custom ${w_step} dump_${iseed}_${ifft}.vel vx vy vz
	dump 			vel all custom 32 dump_${iseed}_${ifft}.vel vx vy vz
	dump 			vel all custom 32 dump_20_${ifft}.vel vx vy vz
	dump 			vel all custom 32 dump_20_1.vel vx vy vz
	dump_modify 		vel sort id
	dump 			pos all custom ${w_step} dump_${iseed}_${ifft}.pos xu yu zu
	dump 			pos all custom 32 dump_${iseed}_${ifft}.pos xu yu zu
	dump 			pos all custom 32 dump_20_${ifft}.pos xu yu zu
	dump 			pos all custom 32 dump_20_1.pos xu yu zu
	dump_modify 		pos sort id
	thermo_style 		custom step temp press vol
	thermo			5000
	timestep		${dt}
	timestep		0.002
	run			${w_total}
	run			131072
Memory usage per processor = 1.64298 Mbytes
Step Temp Press Volume 
       0  0.085287378  0.031599255     241.0483 
    5000  0.090282299 -0.0047882386     241.0483 
   10000  0.080644734  0.078578968     241.0483 
   15000  0.079940566  0.078128622     241.0483 
   20000  0.084439625  0.045761201     241.0483 
   25000  0.080193889  0.077972074     241.0483 
   30000   0.08632821  0.030450933     241.0483 
   35000  0.081182632  0.061318775     241.0483 
   40000  0.085027206  0.038010332     241.0483 
   45000  0.086367738  0.019118708     241.0483 
   50000  0.088433126 0.0085550749     241.0483 
   55000  0.084904977  0.039888503     241.0483 
   60000  0.089269089 0.0025526776     241.0483 
   65000  0.085764046  0.026455576     241.0483 
   70000  0.086034537  0.028445742     241.0483 
   75000  0.076539339   0.10567634     241.0483 
   80000  0.085368281  0.039852493     241.0483 
   85000  0.085989729  0.029325747     241.0483 
   90000   0.08118045  0.064983512     241.0483 
   95000  0.083806298  0.042058385     241.0483 
  100000  0.085005844  0.031843421     241.0483 
  105000  0.082237123  0.055911492     241.0483 
  110000  0.075789199   0.10549152     241.0483 
  115000  0.084731784  0.036226315     241.0483 
  120000  0.080872305  0.067152925     241.0483 
  125000  0.081462783  0.068972679     241.0483 
  130000  0.087695139  0.015148624     241.0483 
  131072  0.084084752  0.043570748     241.0483 
Loop time of 48.6956 on 2 procs for 131072 steps with 256 atoms

Pair  time (%) = 28.1861 (57.8821)
Neigh time (%) = 0.00171137 (0.00351442)
Comm  time (%) = 12.363 (25.3883)
Outpt time (%) = 5.63838 (11.5788)
Other time (%) = 2.50649 (5.14726)

Nlocal:    128 ave 129 max 127 min
Histogram: 1 0 0 0 0 0 0 0 0 1
Nghost:    1109 ave 1110 max 1108 min
Histogram: 1 0 0 0 0 0 0 0 0 1
Neighs:    5504 ave 5553 max 5455 min
Histogram: 1 0 0 0 0 0 0 0 0 1

Total # of neighbors = 11008
Ave neighs/atom = 43
Neighbor list builds = 3
Dangerous builds = 0
	unfix			1
	undump			vel
	undump			pos

next ifft
jump lmp.in.sed.20 loop_fft

