	reset_timestep  	0
	fix 			1 all nve
	dump 			vel all custom ${w_step} dump_${iseed}_${ifft}.vel vx vy vz
	dump 			vel all custom 32 dump_${iseed}_${ifft}.vel vx vy vz
	dump 			vel all custom 32 dump_21_${ifft}.vel vx vy vz
	dump 			vel all custom 32 dump_21_1.vel vx vy vz
	dump_modify 		vel sort id
	dump 			pos all custom ${w_step} dump_${iseed}_${ifft}.pos xu yu zu
	dump 			pos all custom 32 dump_${iseed}_${ifft}.pos xu yu zu
	dump 			pos all custom 32 dump_21_${ifft}.pos xu yu zu
	dump 			pos all custom 32 dump_21_1.pos xu yu zu
	dump_modify 		pos sort id
	thermo_style 		custom step temp press vol
	thermo			5000
	timestep		${dt}
	timestep		0.002
	run			${w_total}
	run			131072
Memory usage per processor = 1.64296 Mbytes
Step Temp Press Volume 
       0  0.082449789  0.051595557     241.0483 
    5000   0.08653012  0.017431805     241.0483 
   10000  0.086318752   0.01658559     241.0483 
   15000  0.086225186   0.01640691     241.0483 
   20000  0.087624251 0.0056049024     241.0483 
   25000  0.084011153  0.036019368     241.0483 
   30000  0.087395196 0.0028200539     241.0483 
   35000  0.084713264  0.027045647     241.0483 
   40000  0.081606061  0.051892241     241.0483 
   45000   0.08096771  0.065198661     241.0483 
   50000  0.080232139  0.062792132     241.0483 
   55000  0.081145513  0.062134268     241.0483 
   60000  0.085306682  0.022920044     241.0483 
   65000  0.081123596  0.062903608     241.0483 
   70000  0.084122445  0.039053825     241.0483 
   75000  0.082991222   0.04336431     241.0483 
   80000  0.086098926  0.017366836     241.0483 
   85000  0.077289019  0.090289549     241.0483 
   90000  0.081902884  0.054557669     241.0483 
   95000  0.082143596  0.046464194     241.0483 
  100000  0.081939697  0.054078498     241.0483 
  105000  0.085967257  0.021149892     241.0483 
  110000  0.083236482  0.044306742     241.0483 
  115000  0.084659019  0.034837763     241.0483 
  120000  0.082339362  0.051970926     241.0483 
  125000  0.086991318  0.012777011     241.0483 
  130000  0.085055091  0.032939558     241.0483 
  131072  0.082665538  0.050477231     241.0483 
Loop time of 71.6616 on 2 procs for 131072 steps with 256 atoms

Pair  time (%) = 28.7596 (40.1325)
Neigh time (%) = 0.00632334 (0.00882389)
Comm  time (%) = 14.9461 (20.8565)
Outpt time (%) = 25.3224 (35.3361)
Other time (%) = 2.6271 (3.66599)

Nlocal:    128 ave 134 max 122 min
Histogram: 1 0 0 0 0 0 0 0 0 1
Nghost:    1109 ave 1115 max 1103 min
Histogram: 1 0 0 0 0 0 0 0 0 1
Neighs:    5504 ave 5766 max 5242 min
Histogram: 1 0 0 0 0 0 0 0 0 1

Total # of neighbors = 11008
Ave neighs/atom = 43
Neighbor list builds = 11
Dangerous builds = 0
	unfix			1
	undump			vel
	undump			pos

next ifft
jump lmp.in.sed.21 loop_fft

