	reset_timestep  	0
	fix 			1 all nve
	dump 			vel all custom ${w_step} dump_${iseed}_${ifft}.vel vx vy vz
	dump 			vel all custom 32 dump_${iseed}_${ifft}.vel vx vy vz
	dump 			vel all custom 32 dump_18_${ifft}.vel vx vy vz
	dump 			vel all custom 32 dump_18_1.vel vx vy vz
	dump_modify 		vel sort id
	dump 			pos all custom ${w_step} dump_${iseed}_${ifft}.pos xu yu zu
	dump 			pos all custom 32 dump_${iseed}_${ifft}.pos xu yu zu
	dump 			pos all custom 32 dump_18_${ifft}.pos xu yu zu
	dump 			pos all custom 32 dump_18_1.pos xu yu zu
	dump_modify 		pos sort id
	thermo_style 		custom step temp press vol
	thermo			5000
	timestep		${dt}
	timestep		0.002
	run			${w_total}
	run			131072
Memory usage per processor = 2.02451 Mbytes
Step Temp Press Volume 
       0  0.089473584 -0.0034613987     241.0483 
    5000  0.085549306  0.025542622     241.0483 
   10000  0.085199762  0.035877369     241.0483 
   15000  0.080969278   0.06122379     241.0483 
   20000   0.08280294  0.046777497     241.0483 
   25000  0.083850879  0.039353217     241.0483 
   30000  0.083783136  0.038593025     241.0483 
   35000  0.080927502   0.06612902     241.0483 
   40000  0.085658758  0.029809535     241.0483 
   45000   0.08488815  0.041853324     241.0483 
   50000   0.08829444 0.0045601964     241.0483 
   55000   0.08320058  0.044638074     241.0483 
   60000  0.081585598  0.056482013     241.0483 
   65000   0.08268649  0.052426603     241.0483 
   70000  0.088952259 -0.0053290638     241.0483 
   75000  0.080832317  0.066420372     241.0483 
   80000  0.084772895  0.028165808     241.0483 
   85000  0.085770638  0.023895437     241.0483 
   90000  0.083459437  0.045300778     241.0483 
   95000  0.086941473  0.014249338     241.0483 
  100000  0.086746114  0.017871302     241.0483 
  105000  0.087095972  0.015108666     241.0483 
  110000  0.082826044  0.045049655     241.0483 
  115000  0.083403177  0.044437439     241.0483 
  120000  0.084723147  0.033869484     241.0483 
  125000   0.08469783  0.036931611     241.0483 
  130000  0.089619022 -0.009939429     241.0483 
  131072  0.090249644 -0.011406852     241.0483 
Loop time of 54.0432 on 2 procs for 131072 steps with 256 atoms

Pair  time (%) = 28.633 (52.9817)
Neigh time (%) = 0 (0)
Comm  time (%) = 13.3626 (24.7258)
Outpt time (%) = 9.15995 (16.9493)
Other time (%) = 2.88759 (5.34312)

Nlocal:    128 ave 130 max 126 min
Histogram: 1 0 0 0 0 0 0 0 0 1
Nghost:    1109 ave 1111 max 1107 min
Histogram: 1 0 0 0 0 0 0 0 0 1
Neighs:    5504 ave 5597 max 5411 min
Histogram: 1 0 0 0 0 0 0 0 0 1

Total # of neighbors = 11008
Ave neighs/atom = 43
Neighbor list builds = 0
Dangerous builds = 0
	unfix			1
	undump			vel
	undump			pos

next ifft
jump lmp.in.sed.18 loop_fft

