	reset_timestep  	0
	fix 			1 all nve
	dump 			vel all custom ${w_step} dump_${iseed}_${ifft}.vel vx vy vz
	dump 			vel all custom 32 dump_${iseed}_${ifft}.vel vx vy vz
	dump 			vel all custom 32 dump_10_${ifft}.vel vx vy vz
	dump 			vel all custom 32 dump_10_1.vel vx vy vz
	dump_modify 		vel sort id
	dump 			pos all custom ${w_step} dump_${iseed}_${ifft}.pos xu yu zu
	dump 			pos all custom 32 dump_${iseed}_${ifft}.pos xu yu zu
	dump 			pos all custom 32 dump_10_${ifft}.pos xu yu zu
	dump 			pos all custom 32 dump_10_1.pos xu yu zu
	dump_modify 		pos sort id
	thermo_style 		custom step temp press vol
	thermo			5000
	timestep		${dt}
	timestep		0.002
	run			${w_total}
	run			131072
Memory usage per processor = 1.64347 Mbytes
Step Temp Press Volume 
       0    0.0787914  0.031323678     241.0483 
    5000  0.080213214  0.027676045     241.0483 
   10000  0.085808513 -0.020674054     241.0483 
   15000  0.082145863   0.01474199     241.0483 
   20000  0.081807294  0.013822691     241.0483 
   25000  0.083874039 0.0027692845     241.0483 
   30000  0.080305147   0.02570018     241.0483 
   35000  0.078408551  0.043079707     241.0483 
   40000  0.081449941  0.016975777     241.0483 
   45000   0.08812099 -0.033149129     241.0483 
   50000  0.079877473   0.02840683     241.0483 
   55000  0.081274669  0.022553333     241.0483 
   60000  0.085890529 -0.0081111864     241.0483 
   65000  0.079869747  0.036733551     241.0483 
   70000  0.086110578 -0.018037566     241.0483 
   75000  0.084608179 -0.004828654     241.0483 
   80000  0.075828387  0.061206223     241.0483 
   85000  0.085949421 -0.018962767     241.0483 
   90000  0.083469555 0.0032946804     241.0483 
   95000  0.077359236  0.049722358     241.0483 
  100000  0.081399108  0.017435269     241.0483 
  105000  0.085472001 -0.013400123     241.0483 
  110000  0.081694843  0.016110253     241.0483 
  115000  0.081540169  0.017958134     241.0483 
  120000  0.079574679  0.031913168     241.0483 
  125000  0.083714781 0.00042112348     241.0483 
  130000   0.08306155 0.0021830866     241.0483 
  131072  0.078617114  0.038495465     241.0483 
Loop time of 55.0816 on 2 procs for 131072 steps with 256 atoms

Pair  time (%) = 28.7612 (52.2156)
Neigh time (%) = 0.00226283 (0.00410814)
Comm  time (%) = 13.8121 (25.0758)
Outpt time (%) = 9.98667 (18.1307)
Other time (%) = 2.51935 (4.57385)

Nlocal:    128 ave 130 max 126 min
Histogram: 1 0 0 0 0 0 0 0 0 1
Nghost:    1109 ave 1111 max 1107 min
Histogram: 1 0 0 0 0 0 0 0 0 1
Neighs:    5504 ave 5584 max 5424 min
Histogram: 1 0 0 0 0 0 0 0 0 1

Total # of neighbors = 11008
Ave neighs/atom = 43
Neighbor list builds = 4
Dangerous builds = 0
	unfix			1
	undump			vel
	undump			pos

next ifft
jump lmp.in.sed.10 loop_fft

