	reset_timestep  	0
	fix 			1 all nve
	dump 			vel all custom ${w_step} dump_${iseed}_${ifft}.vel vx vy vz
	dump 			vel all custom 32 dump_${iseed}_${ifft}.vel vx vy vz
	dump 			vel all custom 32 dump_4_${ifft}.vel vx vy vz
	dump 			vel all custom 32 dump_4_1.vel vx vy vz
	dump_modify 		vel sort id
	dump 			pos all custom ${w_step} dump_${iseed}_${ifft}.pos xu yu zu
	dump 			pos all custom 32 dump_${iseed}_${ifft}.pos xu yu zu
	dump 			pos all custom 32 dump_4_${ifft}.pos xu yu zu
	dump 			pos all custom 32 dump_4_1.pos xu yu zu
	dump_modify 		pos sort id
	thermo_style 		custom step temp press vol
	thermo			5000
	timestep		${dt}
	timestep		0.002
	run			${w_total}
	run			131072
Memory usage per processor = 1.64301 Mbytes
Step Temp Press Volume 
       0  0.086498119 -0.019749647     241.0483 
    5000  0.085751315 -0.0082696273     241.0483 
   10000  0.085746699 -0.012823026     241.0483 
   15000  0.085339101 -0.0053524367     241.0483 
   20000  0.082091442  0.011604136     241.0483 
   25000  0.081557952  0.016406019     241.0483 
   30000  0.089488497 -0.042419403     241.0483 
   35000  0.084483074 -0.0054055364     241.0483 
   40000  0.081881106  0.015560206     241.0483 
   45000  0.084185302 -0.0052389522     241.0483 
   50000  0.083177337 0.0059047494     241.0483 
   55000  0.079774161  0.029949045     241.0483 
   60000   0.08899965  -0.04070857     241.0483 
   65000  0.077886103   0.04732949     241.0483 
   70000  0.079804931  0.033097873     241.0483 
   75000  0.084817243 -0.0070618832     241.0483 
   80000  0.082218009  0.011165303     241.0483 
   85000  0.082122841  0.015501562     241.0483 
   90000  0.079635741  0.034326919     241.0483 
   95000  0.084897164 -0.004391398     241.0483 
  100000  0.085568141 -0.012258807     241.0483 
  105000  0.084001371 0.0024183437     241.0483 
  110000  0.080593828   0.03636477     241.0483 
  115000  0.080291667  0.031504229     241.0483 
  120000  0.083783139 0.0044391479     241.0483 
  125000  0.081771823  0.017196714     241.0483 
  130000  0.085737311   -0.0153338     241.0483 
  131072  0.081402615  0.021650738     241.0483 
Loop time of 48.9876 on 2 procs for 131072 steps with 256 atoms

Pair  time (%) = 28.8506 (58.8936)
Neigh time (%) = 0.00114501 (0.00233734)
Comm  time (%) = 12.9473 (26.4298)
Outpt time (%) = 4.37769 (8.93633)
Other time (%) = 2.81085 (5.73787)

Nlocal:    128 ave 132 max 124 min
Histogram: 1 0 0 0 0 0 0 0 0 1
Nghost:    1109 ave 1113 max 1105 min
Histogram: 1 0 0 0 0 0 0 0 0 1
Neighs:    5504 ave 5675 max 5333 min
Histogram: 1 0 0 0 0 0 0 0 0 1

Total # of neighbors = 11008
Ave neighs/atom = 43
Neighbor list builds = 2
Dangerous builds = 0
	unfix			1
	undump			vel
	undump			pos

next ifft
jump lmp.in.sed.4 loop_fft

