	reset_timestep  	0
	fix 			1 all nve
	dump 			vel all custom ${w_step} dump_${iseed}_${ifft}.vel vx vy vz
	dump 			vel all custom 32 dump_${iseed}_${ifft}.vel vx vy vz
	dump 			vel all custom 32 dump_3_${ifft}.vel vx vy vz
	dump 			vel all custom 32 dump_3_1.vel vx vy vz
	dump_modify 		vel sort id
	dump 			pos all custom ${w_step} dump_${iseed}_${ifft}.pos xu yu zu
	dump 			pos all custom 32 dump_${iseed}_${ifft}.pos xu yu zu
	dump 			pos all custom 32 dump_3_${ifft}.pos xu yu zu
	dump 			pos all custom 32 dump_3_1.pos xu yu zu
	dump_modify 		pos sort id
	thermo_style 		custom step temp press vol
	thermo			5000
	timestep		${dt}
	timestep		0.002
	run			${w_total}
	run			131072
Memory usage per processor = 1.64319 Mbytes
Step Temp Press Volume 
       0  0.079490086 -0.0074020507     241.0483 
    5000   0.08122886 -0.013820301     241.0483 
   10000   0.08384566 -0.039859663     241.0483 
   15000  0.078311091 0.0072787687     241.0483 
   20000  0.080361407 -0.012590684     241.0483 
   25000  0.079496858 -0.0095916954     241.0483 
   30000  0.081680396 -0.022791724     241.0483 
   35000  0.081127831 -0.013221777     241.0483 
   40000  0.079521099 -0.0061970564     241.0483 
   45000   0.08293741 -0.026241172     241.0483 
   50000  0.080719575 -0.010692689     241.0483 
   55000  0.077402652  0.012831616     241.0483 
   60000  0.076960424   0.01903196     241.0483 
   65000  0.078740747 0.0071251544     241.0483 
   70000  0.081096306 -0.020271491     241.0483 
   75000  0.078599474 0.0061226877     241.0483 
   80000  0.079846739 -0.0050182865     241.0483 
   85000  0.080406115 -0.0075111054     241.0483 
   90000  0.081367529 -0.020096497     241.0483 
   95000   0.07868525 -0.0020450776     241.0483 
  100000  0.080207018 -0.0070595184     241.0483 
  105000  0.081456601 -0.017431018     241.0483 
  110000  0.078461996 4.0107099e-06     241.0483 
  115000  0.080859957 -0.017122013     241.0483 
  120000  0.077717065  0.016479369     241.0483 
  125000  0.080645182 -0.011927897     241.0483 
  130000  0.079034429 -0.003411932     241.0483 
  131072  0.082873427 -0.033293248     241.0483 
Loop time of 54.2678 on 2 procs for 131072 steps with 256 atoms

Pair  time (%) = 28.174 (51.9166)
Neigh time (%) = 0.00348604 (0.00642377)
Comm  time (%) = 15.4799 (28.525)
Outpt time (%) = 7.45323 (13.7342)
Other time (%) = 3.1572 (5.81782)

Nlocal:    128 ave 134 max 122 min
Histogram: 1 0 0 0 0 0 0 0 0 1
Nghost:    1109 ave 1115 max 1103 min
Histogram: 1 0 0 0 0 0 0 0 0 1
Neighs:    5504 ave 5763 max 5245 min
Histogram: 1 0 0 0 0 0 0 0 0 1

Total # of neighbors = 11008
Ave neighs/atom = 43
Neighbor list builds = 6
Dangerous builds = 0
	unfix			1
	undump			vel
	undump			pos

next ifft
jump lmp.in.sed.3 loop_fft

