
#------------ NVE rescale ---------------------------------------------------------------------	
	velocity 		all create ${T_run} ${seed} rot yes dist gaussian
	velocity 		all create 0.08267367665 ${seed} rot yes dist gaussian
	velocity 		all create 0.08267367665 11111111 rot yes dist gaussian
	fix 			1 all nve
	fix 			2 all temp/rescale 1 ${T_run} ${T_run} 0.01 1.0
	fix 			2 all temp/rescale 1 0.08267367665 ${T_run} 0.01 1.0
	fix 			2 all temp/rescale 1 0.08267367665 0.08267367665 0.01 1.0
	timestep		${dt}
	timestep		0.002
	thermo_style  	custom step temp press etotal vol
	thermo			1000
	run             	100000	
Memory usage per processor = 1.36469 Mbytes
Step Temp Press TotEng Volume 
       0  0.082673677  -0.71664588   -7.3350923     241.0483 
    1000  0.086536969 -0.0021351818   -7.2120311     241.0483 
    2000  0.073134226  0.015899215   -7.2276484     241.0483 
    3000  0.078197007   0.06399978   -7.2127032     241.0483 
    4000  0.088471497 -0.026828517   -7.2127032     241.0483 
    5000  0.087183434 -0.013257332    -7.212708     241.0483 
    6000  0.076842927  0.072248499   -7.2126971     241.0483 
    7000  0.078505866 -0.041549739   -7.2276599     241.0483 
    8000  0.082681557  0.010619977   -7.2126026     241.0483 
    9000  0.083314385 0.0086618028   -7.2128778     241.0483 
   10000  0.081139422   0.03035415     -7.21326     241.0483 
   11000  0.082647143  0.014037948    -7.213266     241.0483 
   12000  0.078863368  0.039205909   -7.2132721     241.0483 
   13000  0.088112424 -0.033767351   -7.2132791     241.0483 
   14000  0.081820873  0.021848641   -7.2132808     241.0483 
   15000  0.087088406 -0.023065352   -7.2132884     241.0483 
   16000  0.083575437   0.00025102    -7.213287     241.0483 
   17000   0.07912029  0.041884913   -7.2132787     241.0483 
   18000  0.082663166 0.0091998637   -7.2135375     241.0483 
   19000  0.083713125  0.001213131   -7.2135388     241.0483 
   20000  0.084516144 -0.006801547   -7.2135382     241.0483 
   21000  0.082362806  0.016576429   -7.2135344     241.0483 
   22000  0.083585422 0.0035970156   -7.2135402     241.0483 
   23000   0.08391083 -0.0014784967   -7.2135403     241.0483 
   24000  0.082519154  0.019359807   -7.2132562     241.0483 
   25000  0.081281036  0.026254863   -7.2132575     241.0483 
   26000  0.083686071 0.0062584975   -7.2132665     241.0483 
   27000  0.082320569  0.014433158     -7.21327     241.0483 
   28000  0.084981786 -0.011023514   -7.2132626     241.0483 
   29000  0.081427783  0.020112438   -7.2132562     241.0483 
   30000  0.075333397  0.067664195   -7.2132464     241.0483 
   31000  0.082133327  0.012143664   -7.2132596     241.0483 
   32000   0.08320292 0.0044322909   -7.2132605     241.0483 
   33000  0.081500005  0.019351947   -7.2132619     241.0483 
   34000  0.084398873 -0.0051757561   -7.2132613     241.0483 
   35000  0.080295555  0.026668873   -7.2132595     241.0483 
   36000  0.089611082 -0.043934812   -7.2132578     241.0483 
   37000  0.081322768  0.020034563   -7.2132554     241.0483 
   38000  0.080736356  0.020902423   -7.2132535     241.0483 
   39000   0.08394631 0.0067295558   -7.2132515     241.0483 
   40000  0.085766148 -0.0080804671   -7.2132514     241.0483 
   41000  0.082814697  0.010804705   -7.2132517     241.0483 
   42000  0.084984947 -0.0090628378   -7.2132504     241.0483 
   43000  0.080986702  0.025708411   -7.2132474     241.0483 
   44000  0.081266316  0.023848157   -7.2132526     241.0483 
   45000  0.086963036  -0.02157899   -7.2132609     241.0483 
   46000  0.075792479  0.070296103   -7.2132657     241.0483 
   47000  0.077059771  0.060135445   -7.2132652     241.0483 
   48000  0.087569437 -0.027094672   -7.2132775     241.0483 
   49000  0.084249406 -0.0073299444   -7.2132752     241.0483 
   50000  0.080821107  0.024743574   -7.2132712     241.0483 
   51000  0.089837218 -0.044508294   -7.2132858     241.0483 
   52000  0.081284439  0.020515559   -7.2132802     241.0483 
   53000  0.079925341  0.029660238   -7.2132722     241.0483 
   54000  0.087023056 -0.022930009   -7.2132818     241.0483 
   55000  0.081394608  0.024501212   -7.2132782     241.0483 
   56000  0.082466244 0.0091988405   -7.2132849     241.0483 
   57000  0.084486996 -0.0067273409   -7.2132906     241.0483 
   58000  0.076923753  0.057175728   -7.2132854     241.0483 
   59000  0.082435516  0.011868605   -7.2132792     241.0483 
   60000   0.08232561  0.014525773    -7.213281     241.0483 
   61000  0.080017982  0.028195043   -7.2132698     241.0483 
   62000  0.084270954 0.0032396562   -7.2132723     241.0483 
   63000  0.086402125 -0.019594568   -7.2132756     241.0483 
   64000  0.083021072 0.0052517097   -7.2132748     241.0483 
   65000  0.077818605  0.050481511   -7.2132785     241.0483 
   66000  0.084571183 -0.0029837252    -7.213285     241.0483 
   67000  0.078865789  0.044813997    -7.213279     241.0483 
   68000  0.080604034  0.031559398   -7.2132845     241.0483 
   69000  0.085376161 -0.013606521   -7.2132937     241.0483 
   70000  0.083902015 0.0031957646   -7.2131679     241.0483 
   71000   0.08466864 -0.0018236855   -7.2131743     241.0483 
   72000  0.082891346 0.0074619399   -7.2131721     241.0483 
   73000  0.079111713  0.041614811   -7.2131738     241.0483 
   74000  0.083492894 0.0086392181   -7.2131702     241.0483 
   75000  0.085251811 -0.0097582617   -7.2131761     241.0483 
   76000  0.082416342  0.012694072   -7.2131768     241.0483 
   77000  0.084271297 -0.004224334   -7.2131737     241.0483 
   78000  0.086177765 -0.020794779    -7.213176     241.0483 
   79000  0.085588632 -0.010270282   -7.2131706     241.0483 
   80000  0.081225115  0.022320226   -7.2131642     241.0483 
   81000  0.085191575 -0.010630042   -7.2131679     241.0483 
   82000  0.086114536 -0.016413923   -7.2131703     241.0483 
   83000  0.081025291  0.020147999   -7.2131661     241.0483 
   84000   0.08669251 -0.023686525   -7.2131654     241.0483 
   85000  0.080100374  0.034018939   -7.2131578     241.0483 
   86000  0.085203556 -0.0072286904   -7.2131568     241.0483 
   87000  0.076709066  0.064411657    -7.213152     241.0483 
   88000  0.077116708  0.056268415   -7.2131497     241.0483 
   89000  0.082114006  0.019860116   -7.2131412     241.0483 
   90000  0.082132246  0.011605863   -7.2132363     241.0483 
   91000  0.088663492  -0.03394491   -7.2132408     241.0483 
   92000  0.083541201 0.0067154654   -7.2132427     241.0483 
   93000  0.080191513  0.029996887   -7.2132436     241.0483 
   94000  0.083059032  0.011587356   -7.2132469     241.0483 
   95000  0.083886415 0.0010166226   -7.2132528     241.0483 
   96000  0.082876775 0.0099817384   -7.2132484     241.0483 
   97000  0.084221167 -0.0020214219   -7.2132571     241.0483 
   98000  0.082444642  0.011593445   -7.2132593     241.0483 
   99000  0.080915515  0.020534768   -7.2132535     241.0483 
  100000  0.079537422  0.031857312   -7.2132607     241.0483 
Loop time of 35.6004 on 2 procs for 100000 steps with 256 atoms

Pair  time (%) = 21.9545 (61.6693)
Neigh time (%) = 0.00850451 (0.0238888)
Comm  time (%) = 11.7387 (32.9736)
Outpt time (%) = 0.00668275 (0.0187716)
Other time (%) = 1.89198 (5.3145)

Nlocal:    128 ave 132 max 124 min
Histogram: 1 0 0 0 0 0 0 0 0 1
Nghost:    1109 ave 1113 max 1105 min
Histogram: 1 0 0 0 0 0 0 0 0 1
Neighs:    5504 ave 5676 max 5332 min
Histogram: 1 0 0 0 0 0 0 0 0 1

Total # of neighbors = 11008
Ave neighs/atom = 43
Neighbor list builds = 15
Dangerous builds = 0
#	run             	1000
	unfix 			1
	unfix 			2
#------------ NVE -----------------------------------------------------------------------------	
	fix 			1 all nve
	timestep		${dt}
	timestep		0.002
	thermo_style  	custom step temp press etotal vol
	thermo			1000
	run             	250000	
Memory usage per processor = 1.36469 Mbytes
Step Temp Press TotEng Volume 
  100000  0.079537422  0.031857312   -7.2132607     241.0483 
  101000  0.080778937  0.024127543   -7.2132679     241.0483 
  102000  0.081493168  0.024045141   -7.2132636     241.0483 
  103000   0.08391612 0.0084148809   -7.2132621     241.0483 
  104000   0.08535047 -0.0096041384    -7.213261     241.0483 
  105000  0.081987433  0.018683131   -7.2132652     241.0483 
  106000  0.081481734  0.022093441   -7.2132644     241.0483 
  107000  0.081341434  0.021597373   -7.2132627     241.0483 
  108000  0.083017025  0.011053003   -7.2132535     241.0483 
  109000  0.081597922  0.021557839   -7.2132547     241.0483 
  110000  0.082376163   0.01356601   -7.2132571     241.0483 
  111000  0.087747961 -0.032532893   -7.2132566     241.0483 
  112000  0.084663663 -0.0086272986   -7.2132547     241.0483 
  113000  0.085442756 -0.0095979303   -7.2132563     241.0483 
  114000  0.082650477  0.012322224   -7.2132453     241.0483 
  115000  0.080642313  0.030284912   -7.2132358     241.0483 
  116000  0.086778596 -0.019063949   -7.2132426     241.0483 
  117000  0.080550553  0.022591437   -7.2132497     241.0483 
  118000  0.084557044 0.0017170654   -7.2132622     241.0483 
  119000  0.084628352 -0.0072275203   -7.2132519     241.0483 
  120000  0.082746958  0.012043862   -7.2132564     241.0483 
  121000  0.080206479  0.030991321   -7.2132511     241.0483 
  122000   0.08375421 0.0070534821   -7.2132453     241.0483 
  123000  0.084658755 -0.0075658793   -7.2132398     241.0483 
  124000  0.081944091  0.016023252   -7.2132395     241.0483 
  125000  0.083211517 0.0075708456   -7.2132447     241.0483 
  126000  0.081294033  0.024613771   -7.2132471     241.0483 
  127000    0.0800309  0.041102852    -7.213246     241.0483 
  128000  0.080203881  0.032188744    -7.213246     241.0483 
  129000  0.077274053  0.054745751   -7.2132514     241.0483 
  130000   0.08427071 -0.0022114818   -7.2132499     241.0483 
  131000  0.085113838 -0.013224673   -7.2132523     241.0483 
  132000  0.089252122 -0.039105814   -7.2132542     241.0483 
  133000  0.080838309  0.026873278   -7.2132533     241.0483 
  134000  0.085448743 -0.0070333659   -7.2132488     241.0483 
  135000  0.077695398  0.051592743   -7.2132439     241.0483 
  136000  0.084807135 -0.0090048951    -7.213245     241.0483 
  137000  0.082517516  0.010893472   -7.2132395     241.0483 
  138000  0.086950905 -0.023072469    -7.213235     241.0483 
  139000  0.076183678  0.060721414   -7.2132326     241.0483 
  140000   0.08558961 -0.016391254   -7.2132381     241.0483 
  141000  0.084923089 -0.0077132884   -7.2132446     241.0483 
  142000  0.079593842  0.033045609   -7.2132345     241.0483 
  143000  0.079043039  0.042719768   -7.2132321     241.0483 
  144000  0.083291599 0.0089635686   -7.2132438     241.0483 
  145000  0.081795097  0.018932065   -7.2132408     241.0483 
  146000  0.078273936  0.045723944   -7.2132423     241.0483 
  147000  0.087971133 -0.026914167   -7.2132372     241.0483 
  148000   0.08271216 0.0092928431    -7.213233     241.0483 
  149000  0.077361042  0.057359763   -7.2132326     241.0483 
  150000  0.087774643 -0.031061312   -7.2132385     241.0483 
  151000  0.086499674 -0.020104814   -7.2132443     241.0483 
  152000  0.079610315  0.034029775   -7.2132455     241.0483 
  153000  0.076930212  0.053276777   -7.2132353     241.0483 
  154000  0.088892196 -0.038112948   -7.2132411     241.0483 
  155000  0.081183957  0.023697138   -7.2132404     241.0483 
  156000  0.082863345 0.0066528306   -7.2132486     241.0483 
  157000  0.082090849  0.012658504   -7.2132442     241.0483 
  158000  0.080107608  0.032305318   -7.2132381     241.0483 
  159000  0.076990537  0.056175604   -7.2132388     241.0483 
  160000  0.086315399 -0.018777481    -7.213237     241.0483 
  161000  0.082920717  0.010554379   -7.2132422     241.0483 
  162000  0.086662542 -0.017193509   -7.2132455     241.0483 
  163000  0.077418476  0.052708865   -7.2132453     241.0483 
  164000  0.075955429  0.064054277   -7.2132367     241.0483 
  165000  0.082941697 0.0083538456   -7.2132296     241.0483 
  166000  0.084655047 -0.0035414314   -7.2132358     241.0483 
  167000  0.079908161   0.03708349   -7.2132392     241.0483 
  168000  0.087359509 -0.032534779   -7.2132511     241.0483 
  169000  0.081770583  0.017347698   -7.2132524     241.0483 
  170000  0.080389921  0.029527388   -7.2132514     241.0483 
  171000  0.083844458 0.0033499903   -7.2132508     241.0483 
  172000  0.087963051 -0.033391976   -7.2132592     241.0483 
  173000  0.080148428  0.028683676    -7.213246     241.0483 
  174000  0.088517769 -0.033892232   -7.2132472     241.0483 
  175000    0.0899399  -0.04308649   -7.2132537     241.0483 
  176000  0.081990727  0.011777171   -7.2132516     241.0483 
  177000  0.079790346  0.037172417   -7.2132535     241.0483 
  178000  0.081323135  0.023056335    -7.213245     241.0483 
  179000  0.082610148  0.010524537   -7.2132417     241.0483 
  180000  0.082692821  0.008367057   -7.2132439     241.0483 
  181000  0.082344964  0.015902058   -7.2132509     241.0483 
  182000  0.087196549 -0.027495185   -7.2132557     241.0483 
  183000  0.080474511  0.026069142   -7.2132574     241.0483 
  184000  0.083568995 0.0068641056    -7.213268     241.0483 
  185000  0.082425191 0.0049300548   -7.2132655     241.0483 
  186000  0.079117864  0.036585375   -7.2132558     241.0483 
  187000  0.082296106  0.014329926   -7.2132612     241.0483 
  188000  0.083803814 0.0031774271   -7.2132634     241.0483 
  189000  0.081573688  0.022188961   -7.2132637     241.0483 
  190000  0.078522225  0.045371329   -7.2132634     241.0483 
  191000  0.085245065 -0.0071313654   -7.2132769     241.0483 
  192000  0.087941956 -0.029867773   -7.2132805     241.0483 
  193000  0.081335783   0.02295216   -7.2132832     241.0483 
  194000  0.081821822  0.020319292   -7.2132834     241.0483 
  195000    0.0852609 -0.012791994   -7.2132796     241.0483 
  196000  0.082144355  0.017429108   -7.2132734     241.0483 
  197000  0.084962287 -0.0063326836   -7.2132706     241.0483 
  198000  0.074897968  0.075430245   -7.2132623     241.0483 
  199000   0.08849272 -0.037269458   -7.2132654     241.0483 
  200000  0.080586322  0.023963715   -7.2132621     241.0483 
  201000  0.087232832 -0.024756066   -7.2132697     241.0483 
  202000  0.079419478  0.041047796   -7.2132651     241.0483 
  203000  0.087084285 -0.025013643   -7.2132672     241.0483 
  204000  0.085072102 -0.012071325   -7.2132741     241.0483 
  205000  0.083895372 0.0034006951   -7.2132732     241.0483 
  206000  0.080578422  0.031018582    -7.213269     241.0483 
  207000  0.079022426  0.038821614   -7.2132701     241.0483 
  208000   0.08538853  -0.01084851   -7.2132737     241.0483 
  209000   0.08198226  0.018371641   -7.2132676     241.0483 
  210000   0.07867028  0.045054912   -7.2132599     241.0483 
  211000  0.084054983 -0.0013085519   -7.2132583     241.0483 
  212000  0.086143902 -0.012680898   -7.2132582     241.0483 
  213000  0.080711663  0.030189015   -7.2132601     241.0483 
  214000  0.079818682  0.034706002   -7.2132676     241.0483 
  215000  0.084369063 -0.005777833   -7.2132741     241.0483 
  216000  0.086421116  -0.02091375   -7.2132623     241.0483 
  217000  0.076332317  0.059914868   -7.2132645     241.0483 
  218000  0.088172332 -0.030729623   -7.2132703     241.0483 
  219000  0.078643884  0.047771702    -7.213268     241.0483 
  220000  0.084429865 -0.0017215922     -7.21327     241.0483 
  221000  0.087881337 -0.029794112   -7.2132643     241.0483 
  222000  0.085477874 -0.0056326569   -7.2132661     241.0483 
  223000  0.081582709  0.017598285   -7.2132681     241.0483 
  224000  0.083866568 0.00084348385   -7.2132635     241.0483 
  225000  0.081861609  0.022526074   -7.2132636     241.0483 
  226000  0.083692529 0.0085374606   -7.2132645     241.0483 
  227000  0.075534648  0.068901177   -7.2132622     241.0483 
  228000  0.078399785  0.042047641   -7.2132636     241.0483 
  229000  0.084600523 -0.0026757313   -7.2132565     241.0483 
  230000  0.085294274 -0.0075960253   -7.2132541     241.0483 
  231000  0.082190887  0.014483142   -7.2132581     241.0483 
  232000  0.082853947 0.0088188476   -7.2132558     241.0483 
  233000  0.080964304  0.024851297   -7.2132538     241.0483 
  234000  0.077695047  0.053779506   -7.2132364     241.0483 
  235000  0.082743918  0.015327075   -7.2132348     241.0483 
  236000  0.079671504  0.036023233    -7.213232     241.0483 
  237000  0.085317076 -0.0039450707   -7.2132379     241.0483 
  238000  0.080156112  0.031574382   -7.2132296     241.0483 
  239000   0.09095832 -0.053486852   -7.2132336     241.0483 
  240000  0.082211075  0.016417749   -7.2132254     241.0483 
  241000  0.081902702  0.025027357     -7.21322     241.0483 
  242000  0.084027539 0.0059731564   -7.2132117     241.0483 
  243000  0.077245195  0.056350562   -7.2132023     241.0483 
  244000  0.084001085 0.0033734162   -7.2131981     241.0483 
  245000   0.07737472  0.057199955   -7.2131935     241.0483 
  246000  0.089124725 -0.040256095   -7.2131933     241.0483 
  247000   0.07873037  0.041338046   -7.2131964     241.0483 
  248000  0.084501726 -0.0013258742   -7.2132029     241.0483 
  249000  0.082858578  0.016583589    -7.213202     241.0483 
  250000  0.084564237 -0.0038592012   -7.2132024     241.0483 
  251000  0.079733914  0.028900786   -7.2132062     241.0483 
  252000  0.080971511  0.021200279   -7.2132052     241.0483 
  253000  0.079543566  0.032670528   -7.2131985     241.0483 
  254000  0.082921765 0.0056982386   -7.2132009     241.0483 
  255000  0.086012936 -0.015110198   -7.2131987     241.0483 
  256000  0.081371381  0.021903239   -7.2132091     241.0483 
  257000   0.07797821  0.049959621   -7.2132036     241.0483 
  258000  0.082460705 0.0061326766   -7.2132045     241.0483 
  259000  0.081094531  0.022556186   -7.2131955     241.0483 
  260000  0.084385559 -0.0063315768   -7.2132076     241.0483 
  261000  0.082789445 0.0066363947    -7.213205     241.0483 
  262000  0.076649683  0.054360143   -7.2132028     241.0483 
  263000  0.081822317   0.01541577   -7.2132095     241.0483 
  264000  0.083467904 0.0044432689   -7.2132119     241.0483 
  265000  0.081644709  0.020351997   -7.2132158     241.0483 
  266000  0.083388177 0.0028038902   -7.2132219     241.0483 
  267000    0.0846798 -0.0031923831    -7.213232     241.0483 
  268000  0.084289178 0.00045523884   -7.2132288     241.0483 
  269000   0.09087908  -0.05230828   -7.2132301     241.0483 
  270000  0.078119667  0.049756732   -7.2132304     241.0483 
  271000  0.081528708  0.022562954   -7.2132352     241.0483 
  272000   0.08130072  0.024401037   -7.2132348     241.0483 
  273000  0.083987064 0.0050535413   -7.2132397     241.0483 
  274000  0.084848204 -0.0096233845   -7.2132407     241.0483 
  275000  0.076766945  0.057606799   -7.2132348     241.0483 
  276000  0.079742172  0.034457806   -7.2132408     241.0483 
  277000  0.084586783 0.0025910991   -7.2132437     241.0483 
  278000  0.084626161 -0.0048215584   -7.2132435     241.0483 
  279000  0.082043262   0.01729835   -7.2132353     241.0483 
  280000  0.081573225  0.023229175   -7.2132291     241.0483 
  281000  0.081681186  0.019184575   -7.2132269     241.0483 
  282000  0.085657034 -0.013060601   -7.2132295     241.0483 
  283000  0.080851236  0.027472785   -7.2132224     241.0483 
  284000  0.084569501 -0.00042488786   -7.2132276     241.0483 
  285000  0.083791998  0.004906873   -7.2132158     241.0483 
  286000  0.081165605  0.025115977   -7.2132134     241.0483 
  287000  0.086658954 -0.024989644   -7.2132243     241.0483 
  288000   0.08327481  0.006493229   -7.2132156     241.0483 
  289000   0.08081664  0.029354129    -7.213215     241.0483 
  290000  0.083633352 0.0079419009   -7.2132224     241.0483 
  291000  0.080430828    0.0302036   -7.2132238     241.0483 
  292000  0.084929396 -0.0086620565   -7.2132273     241.0483 
  293000  0.081347351   0.02397543    -7.213231     241.0483 
  294000  0.084296336 -0.0082099526   -7.2132343     241.0483 
  295000  0.081022284  0.019912865   -7.2132272     241.0483 
  296000  0.089009746 -0.041726778   -7.2132317     241.0483 
  297000   0.07769049  0.046123077   -7.2132167     241.0483 
  298000  0.082829421 0.0052208698   -7.2132173     241.0483 
  299000  0.079576667  0.040291983   -7.2132114     241.0483 
  300000  0.081691073  0.022956021    -7.213216     241.0483 
  301000  0.085942062 -0.013120554   -7.2132198     241.0483 
  302000  0.080057759  0.038163277   -7.2132136     241.0483 
  303000  0.084546104 -0.0013150176   -7.2132093     241.0483 
  304000  0.077219515  0.056042478   -7.2132042     241.0483 
  305000  0.083596485 -0.00073649055   -7.2132014     241.0483 
  306000  0.080824816  0.027349436   -7.2132022     241.0483 
  307000  0.086447961 -0.017156115   -7.2132017     241.0483 
  308000  0.081730007  0.018122335   -7.2132007     241.0483 
  309000  0.081221076  0.023514099   -7.2132011     241.0483 
  310000  0.083529086 0.0037573197    -7.213202     241.0483 
  311000  0.083003852 0.0085220683    -7.213198     241.0483 
  312000  0.086608359 -0.022879608   -7.2131966     241.0483 
  313000  0.082142464  0.017012675   -7.2131909     241.0483 
  314000   0.07574967  0.063878783   -7.2131834     241.0483 
  315000  0.087543704 -0.021092005   -7.2131869     241.0483 
  316000   0.07961391  0.039222391   -7.2131827     241.0483 
  317000  0.079169673  0.041083331   -7.2131836     241.0483 
  318000  0.083963357 0.0060134258    -7.213185     241.0483 
  319000  0.090269109 -0.045617914   -7.2131884     241.0483 
  320000  0.083214952 0.0064920666   -7.2131916     241.0483 
  321000  0.083006873 0.0022182165   -7.2131956     241.0483 
  322000  0.079280396  0.029470624   -7.2131942     241.0483 
  323000  0.079008494   0.04068964   -7.2131977     241.0483 
  324000  0.081488522  0.020431719   -7.2132009     241.0483 
  325000  0.083255048 0.0084623613   -7.2132066     241.0483 
  326000  0.086842523 -0.022729284   -7.2132042     241.0483 
  327000  0.081951405  0.017449105   -7.2131996     241.0483 
  328000  0.084289865 -0.0018354167   -7.2132048     241.0483 
  329000   0.08165964  0.019949446   -7.2132034     241.0483 
  330000  0.087049165 -0.028315539   -7.2132086     241.0483 
  331000  0.081145997  0.020499286   -7.2132064     241.0483 
  332000  0.083821314 0.00072114341   -7.2132006     241.0483 
  333000  0.083490343 0.0078754405   -7.2131991     241.0483 
  334000  0.081415151  0.029991353   -7.2132026     241.0483 
  335000  0.083647399  0.011347331   -7.2132159     241.0483 
  336000  0.079812417  0.036689574   -7.2132124     241.0483 
  337000  0.085292963 -0.012480278   -7.2132152     241.0483 
  338000  0.086578745 -0.026939997   -7.2132088     241.0483 
  339000  0.079921897  0.033268194   -7.2132034     241.0483 
  340000  0.082708396  0.018294581   -7.2132155     241.0483 
  341000  0.083028517  0.011528796   -7.2132076     241.0483 
  342000  0.081265884   0.02501387   -7.2132081     241.0483 
  343000  0.081117048  0.023228873   -7.2132035     241.0483 
  344000  0.081709825  0.023905964   -7.2132048     241.0483 
  345000  0.088615794 -0.039739578      -7.2132     241.0483 
  346000  0.080205366  0.026668041   -7.2131889     241.0483 
  347000  0.080626279  0.028990182   -7.2131776     241.0483 
  348000  0.084881114 -0.0075604594   -7.2131778     241.0483 
  349000  0.079213413  0.041214968   -7.2131716     241.0483 
  350000  0.084681674 -0.0068804937    -7.213175     241.0483 
Loop time of 86.7137 on 2 procs for 250000 steps with 256 atoms

Pair  time (%) = 55.524 (64.0313)
Neigh time (%) = 0.0124218 (0.0143251)
Comm  time (%) = 27.3226 (31.5089)
Outpt time (%) = 0.0155405 (0.0179216)
Other time (%) = 3.83925 (4.4275)

Nlocal:    128 ave 134 max 122 min
Histogram: 1 0 0 0 0 0 0 0 0 1
Nghost:    1109 ave 1115 max 1103 min
Histogram: 1 0 0 0 0 0 0 0 0 1
Neighs:    5504 ave 5760 max 5248 min
Histogram: 1 0 0 0 0 0 0 0 0 1

Total # of neighbors = 11008
Ave neighs/atom = 43
Neighbor list builds = 22
Dangerous builds = 0
#	run             	10000
	unfix 			1
#------SED-------------------------------------------------------------------------
label loop_fft
variable ifft loop ${num_ffts}
variable ifft loop 1

log 	log_SED_${iseed}_${ifft}.lammps
log 	log_SED_11_${ifft}.lammps
log 	log_SED_11_1.lammps
