
#------------ NVE rescale ---------------------------------------------------------------------	
	velocity 		all create ${T_run} ${seed} rot yes dist gaussian
	velocity 		all create 0.08267367665 ${seed} rot yes dist gaussian
	velocity 		all create 0.08267367665 8888 rot yes dist gaussian
	fix 			1 all nve
	fix 			2 all temp/rescale 1 ${T_run} ${T_run} 0.01 1.0
	fix 			2 all temp/rescale 1 0.08267367665 ${T_run} 0.01 1.0
	fix 			2 all temp/rescale 1 0.08267367665 0.08267367665 0.01 1.0
	timestep		${dt}
	timestep		0.002
	thermo_style  	custom step temp press etotal vol
	thermo			1000
	run             	100000	
Memory usage per processor = 1.36469 Mbytes
Step Temp Press TotEng Volume 
       0  0.082673677  -0.71664588   -7.3350923     241.0483 
    1000  0.086157489   0.08688169   -7.1984039     241.0483 
    2000    0.0770327  0.059865087   -7.2142004     241.0483 
    3000  0.088690849 -0.035499297    -7.214942     241.0483 
    4000  0.080259977  0.020989052   -7.2149365     241.0483 
    5000  0.077413117  0.047144238   -7.2149375     241.0483 
    6000  0.077522342  0.046275451   -7.2149351     241.0483 
    7000  0.084937691 -0.0088511843   -7.2149511     241.0483 
    8000  0.089107198 -0.053888177   -7.2149489     241.0483 
    9000  0.085985479 -0.024889226   -7.2149448     241.0483 
   10000   0.07675794  0.055093783   -7.2149387     241.0483 
   11000  0.078633621  0.042952543   -7.2147295     241.0483 
   12000  0.080589094  0.021781291   -7.2147319     241.0483 
   13000  0.083186347 -0.0027469803     -7.21473     241.0483 
   14000  0.080317224   0.02454909   -7.2147359     241.0483 
   15000   0.08484121  -0.01008876   -7.2147447     241.0483 
   16000  0.081128266  0.020972975   -7.2147429     241.0483 
   17000  0.079308974  0.028301179   -7.2148105     241.0483 
   18000  0.081807601  0.015698395   -7.2148155     241.0483 
   19000  0.084672503 -0.0084914712   -7.2148125     241.0483 
   20000  0.081244299  0.013564822   -7.2151354     241.0483 
   21000  0.085927381  -0.02606406   -7.2151387     241.0483 
   22000  0.082980937 -0.0033187573   -7.2151359     241.0483 
   23000  0.083102006 -0.0035096213   -7.2151349     241.0483 
   24000  0.085867659 -0.019392767   -7.2151359     241.0483 
   25000  0.078199683   0.03407208   -7.2151273     241.0483 
   26000   0.08510262 -0.017010663   -7.2151298     241.0483 
   27000  0.081693803  0.010034615   -7.2151219     241.0483 
   28000  0.078369979  0.039950999   -7.2151153     241.0483 
   29000  0.079520014  0.030007982    -7.215123     241.0483 
   30000  0.085146884  -0.02071884   -7.2151309     241.0483 
   31000  0.083555116 -0.012037062    -7.215127     241.0483 
   32000  0.086904728 -0.032903266   -7.2151343     241.0483 
   33000   0.07907738   0.03141962   -7.2151364     241.0483 
   34000  0.076498383  0.052709955    -7.215332     241.0483 
   35000  0.085235637 -0.023566137   -7.2153357     241.0483 
   36000  0.079273481   0.03012052   -7.2153319     241.0483 
   37000  0.078751513  0.031713775   -7.2153304     241.0483 
   38000  0.085905685 -0.025145698   -7.2153342     241.0483 
   39000  0.087012947 -0.036463376   -7.2153405     241.0483 
   40000  0.074403979  0.062368377   -7.2150611     241.0483 
   41000  0.082440849 0.00023290538   -7.2150626     241.0483 
   42000  0.080439229  0.015168215   -7.2150618     241.0483 
   43000   0.08461586 -0.013883562   -7.2150608     241.0483 
   44000  0.078826151  0.034431841   -7.2150495     241.0483 
   45000  0.084889041 -0.019931104   -7.2150567     241.0483 
   46000  0.085117106 -0.021278608   -7.2150606     241.0483 
   47000  0.073261808  0.077430841   -7.2150529     241.0483 
   48000  0.079575257  0.024238006   -7.2150607     241.0483 
   49000  0.085713506 -0.025048096   -7.2150642     241.0483 
   50000  0.078353634  0.030410968   -7.2150664     241.0483 
   51000   0.07744656  0.041363125    -7.215068     241.0483 
   52000  0.081677406   0.10179928   -7.1999153     241.0483 
   53000  0.084622402  -0.02149842   -7.2153493     241.0483 
   54000  0.081250169  0.007583126   -7.2153509     241.0483 
   55000  0.080195168  0.014209437   -7.2153517     241.0483 
   56000  0.078061999  0.035472364   -7.2153465     241.0483 
   57000  0.085011392 -0.016268954   -7.2153508     241.0483 
   58000   0.08799676 -0.042449276   -7.2153581     241.0483 
   59000  0.083478541 -0.0099747376   -7.2153303     241.0483 
   60000  0.080289818  0.018826522   -7.2153328     241.0483 
   61000  0.078711122  0.032552027   -7.2153335     241.0483 
   62000  0.082440307 0.0067805823   -7.2153264     241.0483 
   63000  0.080127238  0.018743759   -7.2153285     241.0483 
   64000  0.081981051 0.00011603385    -7.215333     241.0483 
   65000  0.084876593 -0.022848929   -7.2153349     241.0483 
   66000  0.081433418 0.0069033727   -7.2153399     241.0483 
   67000  0.081267547 0.0069908815   -7.2153349     241.0483 
   68000  0.084196898 -0.014139353   -7.2153308     241.0483 
   69000  0.081863904  0.005811527   -7.2153277     241.0483 
   70000  0.078571262   0.02438399   -7.2153229     241.0483 
   71000  0.079296263  0.024306132   -7.2153226     241.0483 
   72000  0.083515487 -0.010584105   -7.2153231     241.0483 
   73000  0.079402149  0.021525267   -7.2153303     241.0483 
   74000  0.081156996 0.0094511846   -7.2153375     241.0483 
   75000   0.08541651 -0.025271078   -7.2153394     241.0483 
   76000  0.085464261 -0.022337276   -7.2153363     241.0483 
   77000  0.085400773 -0.023555574   -7.2153263     241.0483 
   78000  0.080223283  0.013758567   -7.2153325     241.0483 
   79000   0.08282951 -0.004025362   -7.2153234     241.0483 
   80000  0.085782636  -0.02254432   -7.2153365     241.0483 
   81000  0.076217559  0.047744361   -7.2153397     241.0483 
   82000   0.08295238 -0.0035262257    -7.215339     241.0483 
   83000  0.076413951  0.050873979   -7.2153393     241.0483 
   84000  0.092290073  0.013787099   -7.1998836     241.0483 
   85000  0.084615754 -0.020576934   -7.2152066     241.0483 
   86000  0.078172065  0.036404756   -7.2152024     241.0483 
   87000  0.082312641 0.0010336341   -7.2151976     241.0483 
   88000  0.077590912  0.039904966    -7.215199     241.0483 
   89000  0.081612485 0.0069920975   -7.2152114     241.0483 
   90000  0.081873525 0.0084854919   -7.2150758     241.0483 
   91000  0.089794084  0.038978192   -7.2000973     241.0483 
   92000  0.090288509  0.026330424   -7.2001019     241.0483 
   93000  0.078561762  0.030239384   -7.2153879     241.0483 
   94000  0.081614806 0.0043764942   -7.2153794     241.0483 
   95000  0.086273221 -0.030496101   -7.2153903     241.0483 
   96000  0.082864385 -0.0024701898   -7.2154013     241.0483 
   97000  0.084190204  0.078214425     -7.20025     241.0483 
   98000  0.080378791  0.016455647   -7.2152631     241.0483 
   99000  0.083493476 -0.0050833695   -7.2152711     241.0483 
  100000  0.080803969  0.017457585   -7.2152722     241.0483 
Loop time of 34.9687 on 2 procs for 100000 steps with 256 atoms

Pair  time (%) = 22.995 (65.7589)
Neigh time (%) = 0 (0)
Comm  time (%) = 10.2079 (29.1917)
Outpt time (%) = 0.00410628 (0.0117428)
Other time (%) = 1.76159 (5.03763)

Nlocal:    128 ave 128 max 128 min
Histogram: 2 0 0 0 0 0 0 0 0 0
Nghost:    1109 ave 1109 max 1109 min
Histogram: 2 0 0 0 0 0 0 0 0 0
Neighs:    5504 ave 5504 max 5504 min
Histogram: 2 0 0 0 0 0 0 0 0 0

Total # of neighbors = 11008
Ave neighs/atom = 43
Neighbor list builds = 0
Dangerous builds = 0
#	run             	1000
	unfix 			1
	unfix 			2
#------------ NVE -----------------------------------------------------------------------------	
	fix 			1 all nve
	timestep		${dt}
	timestep		0.002
	thermo_style  	custom step temp press etotal vol
	thermo			1000
	run             	250000	
Memory usage per processor = 1.36469 Mbytes
Step Temp Press TotEng Volume 
  100000  0.080803969  0.017457585   -7.2152722     241.0483 
  101000   0.07769879  0.046283316   -7.2152674     241.0483 
  102000  0.084507616 -0.012331247   -7.2152738     241.0483 
  103000  0.079687753  0.021452597    -7.215277     241.0483 
  104000  0.081342854 0.0054479163    -7.215274     241.0483 
  105000  0.087537767 -0.038257784   -7.2152738     241.0483 
  106000  0.082469807 -0.0015028872   -7.2152756     241.0483 
  107000  0.081260102 0.0077917992   -7.2152769     241.0483 
  108000  0.081914308 0.0011309191   -7.2152804     241.0483 
  109000  0.081073016  0.009204089   -7.2152813     241.0483 
  110000  0.083728014  -0.01228015   -7.2152766     241.0483 
  111000  0.078906422  0.024378817   -7.2152749     241.0483 
  112000    0.0857943 -0.027599749    -7.215284     241.0483 
  113000  0.088259163 -0.045504232   -7.2152845     241.0483 
  114000  0.079500051  0.028507408   -7.2152827     241.0483 
  115000  0.080903416 0.0086414661   -7.2152748     241.0483 
  116000  0.081466556  0.010475063   -7.2152755     241.0483 
  117000  0.082801653 -0.00092834068   -7.2152721     241.0483 
  118000  0.079052421  0.027963625     -7.21527     241.0483 
  119000  0.084766043  -0.02038986    -7.215272     241.0483 
  120000  0.084526528 -0.012229474   -7.2152712     241.0483 
  121000  0.082363761 0.0033995945   -7.2152672     241.0483 
  122000  0.078196221  0.033104311   -7.2152642     241.0483 
  123000  0.081908881 -0.0014052677   -7.2152779     241.0483 
  124000  0.087776147 -0.047451549   -7.2152808     241.0483 
  125000  0.078064953  0.031410604   -7.2152747     241.0483 
  126000  0.077944344  0.033805064    -7.215275     241.0483 
  127000  0.081176772  0.013443271   -7.2152642     241.0483 
  128000  0.075790046  0.055454501   -7.2152563     241.0483 
  129000  0.084041261 -0.014918076   -7.2152627     241.0483 
  130000  0.080984293 0.0073477886   -7.2152642     241.0483 
  131000  0.081460947 0.0069403116   -7.2152612     241.0483 
  132000   0.08067773  0.013124774   -7.2152582     241.0483 
  133000  0.083525133 -0.0072961952   -7.2152591     241.0483 
  134000  0.082599061 -0.00041171973   -7.2152565     241.0483 
  135000  0.075439975  0.059108852   -7.2152517     241.0483 
  136000  0.081703462 0.0057401337   -7.2152605     241.0483 
  137000  0.082536319 0.00034570499   -7.2152586     241.0483 
  138000  0.080717135  0.017533063   -7.2152556     241.0483 
  139000  0.074033828  0.070374146   -7.2152461     241.0483 
  140000  0.083437111 -0.0047756647    -7.215251     241.0483 
  141000  0.077445918  0.042405895   -7.2152512     241.0483 
  142000  0.078836891  0.031556714   -7.2152459     241.0483 
  143000  0.080075606  0.018648689   -7.2152451     241.0483 
  144000   0.08536309 -0.024744485   -7.2152431     241.0483 
  145000  0.080837246  0.012589562   -7.2152463     241.0483 
  146000  0.082964635 -0.0064626811   -7.2152491     241.0483 
  147000  0.084315602 -0.013175828   -7.2152468     241.0483 
  148000  0.083492363 -0.0095397707    -7.215251     241.0483 
  149000  0.078481531  0.038252831   -7.2152443     241.0483 
  150000  0.075482944  0.063119297   -7.2152518     241.0483 
  151000  0.086781535 -0.030620425   -7.2152616     241.0483 
  152000  0.085823108 -0.028337172   -7.2152572     241.0483 
  153000  0.080968394 0.0081471857   -7.2152539     241.0483 
  154000  0.081666042 0.0068223112   -7.2152545     241.0483 
  155000  0.078274206   0.03608987   -7.2152565     241.0483 
  156000  0.081680928 0.0097289856   -7.2152612     241.0483 
  157000  0.080894144  0.016817057   -7.2152503     241.0483 
  158000  0.086311373 -0.026495316    -7.215252     241.0483 
  159000  0.076979122  0.046577943    -7.215236     241.0483 
  160000  0.084318217 -0.013253267   -7.2152447     241.0483 
  161000  0.086983526 -0.035537481   -7.2152497     241.0483 
  162000  0.078623031  0.031921319   -7.2152472     241.0483 
  163000   0.08970182 -0.056664067   -7.2152489     241.0483 
  164000  0.085869589 -0.024070382   -7.2152371     241.0483 
  165000  0.079848608   0.02623126   -7.2152425     241.0483 
  166000  0.079031313  0.032417437   -7.2152556     241.0483 
  167000  0.077773606  0.042034972   -7.2152559     241.0483 
  168000  0.084494614 -0.012727415   -7.2152618     241.0483 
  169000  0.080642021  0.018505956   -7.2152554     241.0483 
  170000   0.08108802  0.014265056   -7.2152638     241.0483 
  171000  0.082766092 0.0052803373   -7.2152726     241.0483 
  172000  0.078102719  0.036173337   -7.2152649     241.0483 
  173000  0.080013176  0.020200279   -7.2152627     241.0483 
  174000  0.084279612 -0.0089410902   -7.2152642     241.0483 
  175000  0.081774372   0.01257767   -7.2152597     241.0483 
  176000  0.081454958  0.010971564   -7.2152632     241.0483 
  177000  0.085142941 -0.018398019   -7.2152567     241.0483 
  178000  0.085074206 -0.022100644   -7.2152511     241.0483 
  179000   0.07558565  0.059656623   -7.2152511     241.0483 
  180000  0.083561795 -0.0050002909   -7.2152522     241.0483 
  181000  0.081198208  0.015396449   -7.2152571     241.0483 
  182000  0.079715486  0.027153321   -7.2152589     241.0483 
  183000  0.085652119 -0.024282762   -7.2152705     241.0483 
  184000  0.087649877 -0.038729522   -7.2152726     241.0483 
  185000  0.075790872  0.047792056   -7.2152596     241.0483 
  186000  0.080951798 0.0099136077   -7.2152627     241.0483 
  187000  0.083280979 -0.0016228363   -7.2152596     241.0483 
  188000  0.078475728  0.036541263   -7.2152583     241.0483 
  189000  0.083413161 -0.0063645351   -7.2152635     241.0483 
  190000   0.08487707 -0.020183898   -7.2152665     241.0483 
  191000  0.077916197  0.042080602   -7.2152634     241.0483 
  192000  0.084227067 -0.0099468983   -7.2152698     241.0483 
  193000  0.083687575 -0.012562508   -7.2152715     241.0483 
  194000  0.080367896  0.014371576   -7.2152743     241.0483 
  195000   0.08297508 4.205398e-05   -7.2152859     241.0483 
  196000  0.074094116  0.068204281   -7.2152834     241.0483 
  197000  0.084143235 -0.011853519   -7.2152951     241.0483 
  198000  0.081914025 0.0053175809   -7.2152875     241.0483 
  199000  0.081498217 0.0061540784   -7.2152844     241.0483 
  200000  0.080523622  0.014516518   -7.2152805     241.0483 
  201000  0.080106006  0.018041635   -7.2152845     241.0483 
  202000  0.081108197  0.010891716   -7.2152846     241.0483 
  203000  0.082412043 -0.0013633061   -7.2152832     241.0483 
  204000  0.082789938 -0.0023851947   -7.2152918     241.0483 
  205000  0.082835073 -0.0045797809   -7.2152955     241.0483 
  206000  0.084849356 -0.024544433   -7.2152852     241.0483 
  207000  0.082431083 -0.0031935134   -7.2152855     241.0483 
  208000  0.084638882 -0.016419039   -7.2152866     241.0483 
  209000  0.080886924  0.014690358   -7.2152787     241.0483 
  210000  0.079563669  0.028046807   -7.2152758     241.0483 
  211000   0.08582734  -0.02859949   -7.2152845     241.0483 
  212000  0.084350362 -0.019084335   -7.2152646     241.0483 
  213000  0.084476269 -0.019574508   -7.2152603     241.0483 
  214000  0.084629412 -0.019302846   -7.2152667     241.0483 
  215000  0.080332662  0.019739702   -7.2152671     241.0483 
  216000  0.081191849   0.01183873   -7.2152706     241.0483 
  217000  0.075600497  0.056429888   -7.2152699     241.0483 
  218000  0.082788102 -0.00055683258   -7.2152634     241.0483 
  219000  0.081830999 0.0022352665    -7.215262     241.0483 
  220000  0.081327457 0.0069961344   -7.2152554     241.0483 
  221000  0.083912496 -0.011840809   -7.2152632     241.0483 
  222000  0.084038702  -0.01493396   -7.2152598     241.0483 
  223000  0.078440218  0.032470967   -7.2152531     241.0483 
  224000  0.081931403   0.01278209   -7.2152473     241.0483 
  225000  0.087089328 -0.036671916   -7.2152573     241.0483 
  226000  0.082747221 -0.0037541314   -7.2152515     241.0483 
  227000  0.083396505 -0.0088039188   -7.2152524     241.0483 
  228000   0.07902661  0.026902234   -7.2152449     241.0483 
  229000  0.081082813  0.011958316   -7.2152449     241.0483 
  230000  0.082941666 -0.0023596129   -7.2152389     241.0483 
  231000  0.076667869  0.046051776   -7.2152385     241.0483 
  232000  0.079994349  0.021104845   -7.2152407     241.0483 
  233000  0.080998272 0.0095977753   -7.2152361     241.0483 
  234000  0.083424796 -0.0066312387   -7.2152444     241.0483 
  235000  0.073446013  0.072705384   -7.2152428     241.0483 
  236000  0.080660076  0.014521641   -7.2152351     241.0483 
  237000  0.079026335  0.019646153   -7.2152345     241.0483 
  238000  0.083370575 -0.0030751549   -7.2152296     241.0483 
  239000  0.086773725 -0.025814056   -7.2152369     241.0483 
  240000  0.077777101  0.043821319   -7.2152402     241.0483 
  241000  0.080198846  0.019878385   -7.2152374     241.0483 
  242000  0.078011354  0.034823459   -7.2152377     241.0483 
  243000  0.084695539 -0.014554247   -7.2152417     241.0483 
  244000  0.079987499  0.021458299   -7.2152406     241.0483 
  245000  0.080639435  0.014252415   -7.2152433     241.0483 
  246000  0.081627002 0.0084146417   -7.2152425     241.0483 
  247000  0.083102424 -0.00043341406   -7.2152382     241.0483 
  248000  0.080302352   0.02704633   -7.2152376     241.0483 
  249000  0.082230225 0.0091490065   -7.2152344     241.0483 
  250000  0.078666333  0.027423133   -7.2152287     241.0483 
  251000  0.083529921 -0.012946831   -7.2152348     241.0483 
  252000  0.085985793  -0.02929624   -7.2152309     241.0483 
  253000  0.077929394  0.034256876   -7.2152328     241.0483 
  254000  0.084166684 -0.0065119632   -7.2152348     241.0483 
  255000  0.080402025  0.014700836   -7.2152297     241.0483 
  256000  0.077400937  0.040364964   -7.2152234     241.0483 
  257000  0.084221058 -0.010472781   -7.2152322     241.0483 
  258000  0.073692485  0.070934286    -7.215223     241.0483 
  259000  0.083743853 -0.010917559   -7.2152305     241.0483 
  260000  0.082833662 -0.0063581354   -7.2152229     241.0483 
  261000  0.083484969 -0.0098886178   -7.2152244     241.0483 
  262000  0.082064314 0.0080505978   -7.2152216     241.0483 
  263000  0.083066197 -0.0056107437   -7.2152189     241.0483 
  264000  0.078584921  0.030285461   -7.2152159     241.0483 
  265000   0.07985653  0.022466027   -7.2152124     241.0483 
  266000  0.083145911 -0.0062967836   -7.2152189     241.0483 
  267000  0.087227454 -0.035880308   -7.2152238     241.0483 
  268000  0.077401874  0.043170826   -7.2152126     241.0483 
  269000  0.077819151  0.040472487   -7.2152014     241.0483 
  270000  0.080278777  0.019636753   -7.2152039     241.0483 
  271000   0.08826204 -0.044511888   -7.2152127     241.0483 
  272000  0.077769489  0.042385431   -7.2152097     241.0483 
  273000   0.07704637  0.045720655   -7.2152049     241.0483 
  274000  0.083919912 -0.0094618686   -7.2152081     241.0483 
  275000  0.082235334  0.008192335   -7.2152114     241.0483 
  276000  0.080519885  0.022887717   -7.2152085     241.0483 
  277000  0.088948487 -0.045301981   -7.2152129     241.0483 
  278000  0.079132127  0.025737289   -7.2152045     241.0483 
  279000  0.080808354 0.0098008529   -7.2151988     241.0483 
  280000   0.08278218 -0.00021325509   -7.2151986     241.0483 
  281000  0.081951762 0.0062392045   -7.2152024     241.0483 
  282000  0.079826339  0.017767739   -7.2152053     241.0483 
  283000  0.082800232 8.5515315e-06   -7.2152155     241.0483 
  284000  0.084226761 -0.008718685   -7.2152203     241.0483 
  285000  0.075002135   0.06508106   -7.2152225     241.0483 
  286000  0.081947572 0.0068920087   -7.2152273     241.0483 
  287000  0.085020499 -0.019438998   -7.2152245     241.0483 
  288000  0.087070826 -0.037034704   -7.2152216     241.0483 
  289000  0.083765155 -0.017053418   -7.2152139     241.0483 
  290000  0.083610381  -0.01106209   -7.2152154     241.0483 
  291000  0.079270759  0.029242889   -7.2152139     241.0483 
  292000   0.08083666  0.013695153    -7.215212     241.0483 
  293000  0.083640359 -0.008341993    -7.215214     241.0483 
  294000  0.075722737  0.057945345   -7.2152105     241.0483 
  295000  0.081613469 0.0082117655   -7.2152189     241.0483 
  296000  0.085037391 -0.023650044   -7.2152124     241.0483 
  297000  0.081409961 0.0067847014   -7.2152109     241.0483 
  298000  0.077625416   0.04026171   -7.2152072     241.0483 
  299000  0.081846178 0.0056515038   -7.2152164     241.0483 
  300000  0.086791971 -0.033571961   -7.2152189     241.0483 
  301000  0.081537831 0.0088832847   -7.2152144     241.0483 
  302000  0.082101585 0.0012858138   -7.2152116     241.0483 
  303000    0.0788047  0.024733672    -7.215211     241.0483 
  304000  0.083856157 -0.0095475784   -7.2152148     241.0483 
  305000  0.080686436  0.015834523    -7.215211     241.0483 
  306000  0.076851198  0.045010521   -7.2152045     241.0483 
  307000  0.082909756 -0.002526929    -7.215211     241.0483 
  308000  0.083459157 -0.0077218328   -7.2152055     241.0483 
  309000  0.080358067  0.020494856   -7.2151929     241.0483 
  310000  0.078244426  0.029688957   -7.2151866     241.0483 
  311000  0.081040965  0.014506603    -7.215182     241.0483 
  312000   0.07760055  0.039769783   -7.2151834     241.0483 
  313000  0.077053026  0.039266539   -7.2151813     241.0483 
  314000   0.08376102 -0.010034104   -7.2151794     241.0483 
  315000  0.078752505  0.027645975   -7.2151694     241.0483 
  316000  0.076542356  0.047857085   -7.2151701     241.0483 
  317000   0.08312157 -0.005560128   -7.2151797     241.0483 
  318000  0.084900543 -0.024376462   -7.2151729     241.0483 
  319000  0.081683636 0.0020231574   -7.2151678     241.0483 
  320000  0.086635457 -0.035209051   -7.2151738     241.0483 
  321000  0.075664662  0.056013785   -7.2151725     241.0483 
  322000  0.082824798 -0.0046718889   -7.2151736     241.0483 
  323000  0.081658282 0.0060721304   -7.2151747     241.0483 
  324000  0.087728798 -0.039699109   -7.2151838     241.0483 
  325000  0.080944993  0.016983805   -7.2151755     241.0483 
  326000  0.081409662 0.0088281348   -7.2151777     241.0483 
  327000  0.083481152 -0.0070409508   -7.2151856     241.0483 
  328000  0.076549523  0.049642111   -7.2151933     241.0483 
  329000   0.07905089  0.031290798   -7.2151908     241.0483 
  330000   0.08470428 -0.017414148   -7.2152106     241.0483 
  331000  0.076747538  0.049203085   -7.2152025     241.0483 
  332000  0.082502474 -0.00060779654   -7.2152008     241.0483 
  333000  0.083417315 -0.0065073543   -7.2151974     241.0483 
  334000  0.087610673 -0.037590519   -7.2152064     241.0483 
  335000  0.076366239  0.051826652   -7.2152067     241.0483 
  336000  0.082875665 -0.0061455649   -7.2152017     241.0483 
  337000  0.081433297   0.01284383   -7.2152017     241.0483 
  338000   0.08250769 0.0062620509   -7.2151928     241.0483 
  339000  0.084479866 -0.011747342   -7.2151881     241.0483 
  340000  0.085196059 -0.019416965     -7.21519     241.0483 
  341000  0.076802581  0.050481947    -7.215187     241.0483 
  342000  0.078077976  0.038095664   -7.2151851     241.0483 
  343000   0.08144473  0.010622306   -7.2151924     241.0483 
  344000  0.079582026  0.026465803   -7.2151913     241.0483 
  345000  0.078324644  0.033267656   -7.2151971     241.0483 
  346000  0.082919506  0.002526273   -7.2151989     241.0483 
  347000  0.084348429 -0.015037514   -7.2151933     241.0483 
  348000  0.077024608   0.04550445   -7.2151942     241.0483 
  349000  0.086183219 -0.025490299   -7.2151988     241.0483 
  350000  0.083535283 -0.0054206983    -7.215207     241.0483 
Loop time of 87.3021 on 2 procs for 250000 steps with 256 atoms

Pair  time (%) = 57.498 (65.861)
Neigh time (%) = 0.0117999 (0.0135162)
Comm  time (%) = 26.0607 (29.8512)
Outpt time (%) = 0.0109082 (0.0124948)
Other time (%) = 3.72069 (4.26186)

Nlocal:    128 ave 129 max 127 min
Histogram: 1 0 0 0 0 0 0 0 0 1
Nghost:    1109 ave 1110 max 1108 min
Histogram: 1 0 0 0 0 0 0 0 0 1
Neighs:    5504 ave 5538 max 5470 min
Histogram: 1 0 0 0 0 0 0 0 0 1

Total # of neighbors = 11008
Ave neighs/atom = 43
Neighbor list builds = 21
Dangerous builds = 0
#	run             	10000
	unfix 			1
#------SED-------------------------------------------------------------------------
label loop_fft
variable ifft loop ${num_ffts}
variable ifft loop 1

log 	log_SED_${iseed}_${ifft}.lammps
log 	log_SED_8_${ifft}.lammps
log 	log_SED_8_1.lammps
