	reset_timestep  	0
	fix 			1 all nve
	dump 			vel all custom ${w_step} dump_${iseed}_${ifft}.vel vx vy vz
	dump 			vel all custom 32 dump_${iseed}_${ifft}.vel vx vy vz
	dump 			vel all custom 32 dump_5_${ifft}.vel vx vy vz
	dump 			vel all custom 32 dump_5_1.vel vx vy vz
	dump_modify 		vel sort id
	dump 			pos all custom ${w_step} dump_${iseed}_${ifft}.pos xu yu zu
	dump 			pos all custom 32 dump_${iseed}_${ifft}.pos xu yu zu
	dump 			pos all custom 32 dump_5_${ifft}.pos xu yu zu
	dump 			pos all custom 32 dump_5_1.pos xu yu zu
	dump_modify 		pos sort id
	thermo_style 		custom step temp press vol
	thermo			5000
	timestep		${dt}
	timestep		0.002
	run			${w_total}
	run			131072
Memory usage per processor = 1.64324 Mbytes
Step Temp Press Volume 
       0  0.077776028 0.0095456131     241.0483 
    5000  0.078780216 0.00069062163     241.0483 
   10000  0.080069033 -0.0086272466     241.0483 
   15000  0.080115415 -0.006935105     241.0483 
   20000  0.084565147 -0.046691659     241.0483 
   25000  0.083091785 -0.035031374     241.0483 
   30000  0.079637431  -0.00209762     241.0483 
   35000  0.081410044  -0.01549828     241.0483 
   40000  0.076954372  0.023454619     241.0483 
   45000  0.084778793 -0.045394871     241.0483 
   50000  0.078328907 0.0037530094     241.0483 
   55000  0.074806388  0.029046173     241.0483 
   60000  0.080941411  -0.01594377     241.0483 
   65000  0.081139377 -0.0098115279     241.0483 
   70000  0.073837866  0.047771279     241.0483 
   75000  0.078637274 0.0049868994     241.0483 
   80000  0.075496568  0.034083117     241.0483 
   85000  0.079098566 0.00078326532     241.0483 
   90000   0.08233124 -0.020113579     241.0483 
   95000  0.081709652  -0.01706709     241.0483 
  100000   0.07700501  0.020910668     241.0483 
  105000  0.080265012 -0.008439553     241.0483 
  110000  0.076242438  0.031465297     241.0483 
  115000  0.076292955  0.028343127     241.0483 
  120000  0.078235947 0.0078142707     241.0483 
  125000  0.072254284  0.064495117     241.0483 
  130000  0.083223411 -0.030844569     241.0483 
  131072  0.080309387 -0.0087792403     241.0483 
Loop time of 52.3962 on 2 procs for 131072 steps with 256 atoms

Pair  time (%) = 28.8493 (55.0598)
Neigh time (%) = 0.00340223 (0.00649328)
Comm  time (%) = 13.9698 (26.6618)
Outpt time (%) = 7.17953 (13.7024)
Other time (%) = 2.39424 (4.56949)

Nlocal:    128 ave 133 max 123 min
Histogram: 1 0 0 0 0 0 0 0 0 1
Nghost:    1109 ave 1114 max 1104 min
Histogram: 1 0 0 0 0 0 0 0 0 1
Neighs:    5504 ave 5707 max 5301 min
Histogram: 1 0 0 0 0 0 0 0 0 1

Total # of neighbors = 11008
Ave neighs/atom = 43
Neighbor list builds = 6
Dangerous builds = 0
	unfix			1
	undump			vel
	undump			pos

next ifft
jump lmp.in.sed.5 loop_fft

