
#------------ NVE rescale ---------------------------------------------------------------------	
	velocity 		all create ${T_run} ${seed} rot yes dist gaussian
	velocity 		all create 0.08267367665 ${seed} rot yes dist gaussian
	velocity 		all create 0.08267367665 6666 rot yes dist gaussian
	fix 			1 all nve
	fix 			2 all temp/rescale 1 ${T_run} ${T_run} 0.01 1.0
	fix 			2 all temp/rescale 1 0.08267367665 ${T_run} 0.01 1.0
	fix 			2 all temp/rescale 1 0.08267367665 0.08267367665 0.01 1.0
	timestep		${dt}
	timestep		0.002
	thermo_style  	custom step temp press etotal vol
	thermo			1000
	run             	100000	
Memory usage per processor = 1.36469 Mbytes
Step Temp Press TotEng Volume 
       0  0.082673677  -0.71664588   -7.3350923     241.0483 
    1000  0.084755169  0.014050013   -7.2116459     241.0483 
    2000  0.077420383  0.068938298   -7.2118817     241.0483 
    3000   0.08513247 -0.0022146773   -7.2123423     241.0483 
    4000  0.084626315 -0.0023095912   -7.2123349     241.0483 
    5000   0.07788111  0.056738466   -7.2123326     241.0483 
    6000  0.087528606 -0.016510424   -7.2123425     241.0483 
    7000  0.085061228 -0.0045662798   -7.2123409     241.0483 
    8000  0.076284218  0.064897525   -7.2123296     241.0483 
    9000  0.083747269  0.014011554   -7.2123383     241.0483 
   10000  0.083067239  0.018991536     -7.21234     241.0483 
   11000  0.080282887  0.037969981   -7.2123288     241.0483 
   12000  0.083280775  0.015375899   -7.2123227     241.0483 
   13000  0.083568828  0.015744455   -7.2123186     241.0483 
   14000  0.084449255  0.005544527   -7.2123083     241.0483 
   15000  0.079291477  0.045730653   -7.2123101     241.0483 
   16000  0.083666533 0.0074259408   -7.2127089     241.0483 
   17000  0.082784176  0.015751983    -7.212699     241.0483 
   18000  0.082750379  0.019422673    -7.212703     241.0483 
   19000  0.086161198  -0.01153338   -7.2127113     241.0483 
   20000  0.083642013 0.0091100117    -7.212706     241.0483 
   21000  0.076526697  0.066219248   -7.2127138     241.0483 
   22000  0.085760074 -0.0089542025     -7.21272     241.0483 
   23000  0.080864456  0.031558376   -7.2127221     241.0483 
   24000  0.083312081  0.011483832    -7.212716     241.0483 
   25000  0.077628492   0.05456145   -7.2127082     241.0483 
   26000  0.083700378  0.010082867   -7.2127146     241.0483 
   27000  0.084154059 0.0042793604   -7.2127015     241.0483 
   28000  0.080237931  0.036849406   -7.2126971     241.0483 
   29000  0.081282393  0.032001207   -7.2127015     241.0483 
   30000  0.084918987 0.00078111853      -7.2127     241.0483 
   31000  0.087808311 -0.025345863   -7.2127103     241.0483 
   32000  0.081018533  0.040827816   -7.2127103     241.0483 
   33000  0.078909413  0.049701253    -7.212707     241.0483 
   34000  0.080490601  0.035857987   -7.2127038     241.0483 
   35000  0.084416038 0.0043640591   -7.2127069     241.0483 
   36000  0.083327726  0.017178306    -7.212704     241.0483 
   37000  0.084073313 0.0070963468   -7.2127026     241.0483 
   38000  0.082715265  0.015180263   -7.2127077     241.0483 
   39000    0.0797814  0.042575348   -7.2127098     241.0483 
   40000  0.079754369  0.046166944    -7.212716     241.0483 
   41000   0.07968704  0.039559962   -7.2127243     241.0483 
   42000  0.081580474  0.029998709    -7.212721     241.0483 
   43000  0.086087997 -0.009667045   -7.2127203     241.0483 
   44000  0.082796538 0.0096954552   -7.2127331     241.0483 
   45000  0.085925859 -0.011331553   -7.2127452     241.0483 
   46000  0.084107474  0.092534655   -7.1977704     241.0483 
   47000  0.085790614 -0.0087900158   -7.2127295     241.0483 
   48000  0.082370555   0.02413656   -7.2127307     241.0483 
   49000  0.081287254  0.033395133   -7.2127351     241.0483 
   50000  0.080363964   0.03488315     -7.21273     241.0483 
   51000  0.089291484 -0.038888669   -7.2127436     241.0483 
   52000  0.083399514 0.0083026985   -7.2127524     241.0483 
   53000  0.084290348 0.0060789397   -7.2127584     241.0483 
   54000  0.078841821  0.044877025   -7.2127564     241.0483 
   55000  0.082295366  0.024625913   -7.2127524     241.0483 
   56000  0.083395145 0.0063711399   -7.2127493     241.0483 
   57000  0.083296155 0.0089063179   -7.2127559     241.0483 
   58000  0.078738316  0.048088068   -7.2127511     241.0483 
   59000  0.083281908 0.0067821595   -7.2128558     241.0483 
   60000  0.088099143 -0.026727397   -7.2128549     241.0483 
   61000  0.080564191  0.024082129   -7.2128527     241.0483 
   62000    0.0867808 -0.020023322   -7.2128528     241.0483 
   63000  0.082157057  0.019206342   -7.2128625     241.0483 
   64000  0.076765785  0.071071772    -7.212862     241.0483 
   65000  0.084738588 0.0031844206   -7.2128677     241.0483 
   66000  0.085012226 -0.00012168835   -7.2128708     241.0483 
   67000  0.084501781 0.0056158209   -7.2128753     241.0483 
   68000  0.080296394 -0.057891457   -7.2282956     241.0483 
   69000  0.083440402 0.0059259518   -7.2132391     241.0483 
   70000  0.084672676 -0.002569585   -7.2132351     241.0483 
   71000  0.085935062 -0.010698992    -7.213235     241.0483 
   72000  0.082556666  0.012778818   -7.2132383     241.0483 
   73000  0.081486706  0.021078008   -7.2132404     241.0483 
   74000  0.086324435 -0.022140125    -7.213252     241.0483 
   75000  0.083843338 0.0013018346   -7.2132489     241.0483 
   76000  0.078989212  0.037919538   -7.2132449     241.0483 
   77000  0.088039185 -0.029188957   -7.2132597     241.0483 
   78000  0.081529114  0.018881256   -7.2132622     241.0483 
   79000  0.082617209  0.013604106   -7.2132618     241.0483 
   80000  0.082401406  0.014124523   -7.2132666     241.0483 
   81000  0.085857732 -0.012728467   -7.2132636     241.0483 
   82000  0.086900545 -0.028064986   -7.2132564     241.0483 
   83000  0.085469002 -0.006908044   -7.2125446     241.0483 
   84000  0.077910151  0.053576638   -7.2125434     241.0483 
   85000  0.082885187  0.010398428    -7.212544     241.0483 
   86000  0.081518387  0.024575253   -7.2125433     241.0483 
   87000  0.082931376  0.016289627   -7.2125311     241.0483 
   88000  0.082947004  0.015305643   -7.2125447     241.0483 
   89000  0.080769241  0.027058204   -7.2125422     241.0483 
   90000  0.083526868  0.012178997   -7.2125437     241.0483 
   91000  0.079168117  0.044109848   -7.2125472     241.0483 
   92000  0.078803256   0.04469398   -7.2125464     241.0483 
   93000  0.083571382  0.010550062   -7.2125437     241.0483 
   94000  0.081094539  0.023036649   -7.2125448     241.0483 
   95000  0.085271741 -0.0062397233   -7.2125342     241.0483 
   96000  0.079715555   0.03913271   -7.2125267     241.0483 
   97000  0.081569035    0.0207922   -7.2125188     241.0483 
   98000  0.079638237  0.042473462   -7.2125145     241.0483 
   99000  0.083173098   0.02089399   -7.2125106     241.0483 
  100000  0.083727167  0.012776416   -7.2125209     241.0483 
Loop time of 33.2388 on 2 procs for 100000 steps with 256 atoms

Pair  time (%) = 21.4324 (64.48)
Neigh time (%) = 0 (0)
Comm  time (%) = 10.1276 (30.4691)
Outpt time (%) = 0.00509167 (0.0153184)
Other time (%) = 1.6738 (5.03567)

Nlocal:    128 ave 128 max 128 min
Histogram: 2 0 0 0 0 0 0 0 0 0
Nghost:    1109 ave 1109 max 1109 min
Histogram: 2 0 0 0 0 0 0 0 0 0
Neighs:    5504 ave 5504 max 5504 min
Histogram: 2 0 0 0 0 0 0 0 0 0

Total # of neighbors = 11008
Ave neighs/atom = 43
Neighbor list builds = 0
Dangerous builds = 0
#	run             	1000
	unfix 			1
	unfix 			2
#------------ NVE -----------------------------------------------------------------------------	
	fix 			1 all nve
	timestep		${dt}
	timestep		0.002
	thermo_style  	custom step temp press etotal vol
	thermo			1000
	run             	250000	
Memory usage per processor = 1.36469 Mbytes
Step Temp Press TotEng Volume 
  100000  0.083727167  0.012776416   -7.2125209     241.0483 
  101000  0.088326938  -0.02807433   -7.2125225     241.0483 
  102000  0.082819013  0.013164432   -7.2125298     241.0483 
  103000  0.080466948  0.036214836   -7.2125331     241.0483 
  104000  0.083342013 0.0094609966   -7.2125375     241.0483 
  105000  0.083074229  0.015965973   -7.2125422     241.0483 
  106000  0.086924949 -0.020492884   -7.2125406     241.0483 
  107000   0.08636545 -0.012450475   -7.2125381     241.0483 
  108000  0.079837695   0.03807271   -7.2125229     241.0483 
  109000  0.078841958  0.052396652   -7.2125208     241.0483 
  110000  0.081543171  0.027372702   -7.2125232     241.0483 
  111000  0.079546397   0.04834085   -7.2125173     241.0483 
  112000  0.082880482   0.01496427   -7.2125202     241.0483 
  113000  0.082692139  0.013912484   -7.2125114     241.0483 
  114000  0.083189734 0.0065929374   -7.2125129     241.0483 
  115000  0.076880004  0.059922341   -7.2125067     241.0483 
  116000  0.082360491  0.015926204   -7.2125092     241.0483 
  117000   0.08629758 -0.011335183    -7.212506     241.0483 
  118000  0.081101155  0.025469527   -7.2125093     241.0483 
  119000   0.08381809 0.0074743813   -7.2125165     241.0483 
  120000  0.081346111  0.026961582   -7.2125115     241.0483 
  121000  0.084576629 -0.0010092882   -7.2125038     241.0483 
  122000  0.079318884  0.037249714   -7.2125022     241.0483 
  123000  0.087335647 -0.016129684   -7.2125048     241.0483 
  124000  0.079863558  0.040996595   -7.2125044     241.0483 
  125000  0.080822687  0.033406186   -7.2125042     241.0483 
  126000  0.084082671 0.0066258857   -7.2124987     241.0483 
  127000  0.084981439 -0.0037121865   -7.2125005     241.0483 
  128000  0.081964653  0.024789917   -7.2125029     241.0483 
  129000  0.081236174  0.026793072   -7.2125017     241.0483 
  130000   0.07788326  0.052373013   -7.2124992     241.0483 
  131000  0.087964026 -0.029803869   -7.2125057     241.0483 
  132000  0.082924616  0.011523426    -7.212497     241.0483 
  133000   0.08762626 -0.020541183   -7.2124956     241.0483 
  134000  0.082848806  0.016991016   -7.2124934     241.0483 
  135000  0.084556498 0.0059667626   -7.2124915     241.0483 
  136000  0.080183863   0.03724246   -7.2124801     241.0483 
  137000  0.080987408  0.031585955    -7.212477     241.0483 
  138000  0.082580292   0.01513775   -7.2124799     241.0483 
  139000  0.083343633 0.0080379371   -7.2124741     241.0483 
  140000  0.085193882 -0.0077394784   -7.2124779     241.0483 
  141000   0.08041872   0.03510027   -7.2124664     241.0483 
  142000  0.082800855  0.019384455   -7.2124645     241.0483 
  143000   0.08394583  0.010607525   -7.2124615     241.0483 
  144000  0.085354958 0.0025665414   -7.2124631     241.0483 
  145000  0.078891322  0.044370711   -7.2124669     241.0483 
  146000  0.088665033 -0.032766458   -7.2124656     241.0483 
  147000  0.085335948 -0.004914741   -7.2124672     241.0483 
  148000  0.083103295  0.013048389   -7.2124601     241.0483 
  149000  0.080159933  0.040853809   -7.2124605     241.0483 
  150000  0.083257893  0.013544392   -7.2124616     241.0483 
  151000  0.085008667 -0.0051719601   -7.2124579     241.0483 
  152000  0.087029085 -0.017229917   -7.2124561     241.0483 
  153000  0.080752841  0.035482816   -7.2124613     241.0483 
  154000  0.077273737  0.059109427   -7.2124549     241.0483 
  155000    0.0809328  0.028315863   -7.2124603     241.0483 
  156000  0.082816205  0.011234914   -7.2124671     241.0483 
  157000  0.091207798 -0.052804791   -7.2124698     241.0483 
  158000  0.074542212  0.079808105    -7.212462     241.0483 
  159000  0.090878679 -0.050654222   -7.2124772     241.0483 
  160000  0.082792801  0.013498265   -7.2124737     241.0483 
  161000  0.081143468  0.026452605   -7.2124654     241.0483 
  162000  0.084063159 0.0044082928   -7.2124635     241.0483 
  163000  0.081637334  0.024401936   -7.2124609     241.0483 
  164000  0.084943294 -0.0026512953   -7.2124677     241.0483 
  165000  0.086144839 -0.010286264   -7.2124622     241.0483 
  166000   0.08166138   0.02469217   -7.2124587     241.0483 
  167000  0.084745416 -0.0037858054   -7.2124584     241.0483 
  168000  0.086980216 -0.017227766   -7.2124606     241.0483 
  169000  0.083105681  0.014056844   -7.2124778     241.0483 
  170000  0.083335562  0.011203317   -7.2124742     241.0483 
  171000  0.083588901 0.0097801423   -7.2124771     241.0483 
  172000  0.080871665   0.03308263   -7.2124695     241.0483 
  173000  0.081450102  0.035165028   -7.2124732     241.0483 
  174000  0.082511719  0.016373159   -7.2124701     241.0483 
  175000  0.085053312 -0.0035108772   -7.2124661     241.0483 
  176000   0.07988183  0.039539735   -7.2124722     241.0483 
  177000  0.076726001  0.065380505   -7.2124736     241.0483 
  178000   0.07997513  0.038693453   -7.2124711     241.0483 
  179000  0.082220061   0.01540987   -7.2124682     241.0483 
  180000  0.081077624  0.028885028   -7.2124727     241.0483 
  181000  0.080790745  0.028677188   -7.2124728     241.0483 
  182000   0.07675975  0.062842129   -7.2124785     241.0483 
  183000  0.079262757  0.048598312   -7.2124796     241.0483 
  184000  0.079519379  0.046803107   -7.2124856     241.0483 
  185000  0.084949158 -0.00063067606   -7.2124915     241.0483 
  186000  0.086942005 -0.013144484   -7.2124898     241.0483 
  187000  0.079725179  0.045794053   -7.2124831     241.0483 
  188000  0.082620486  0.021336468   -7.2124914     241.0483 
  189000  0.079864657  0.044252381   -7.2124992     241.0483 
  190000  0.086566677 -0.014147026   -7.2124978     241.0483 
  191000  0.085665935 -0.005939238   -7.2125035     241.0483 
  192000  0.086271889 -0.010114534   -7.2125055     241.0483 
  193000  0.083977284 0.0081813098   -7.2124992     241.0483 
  194000  0.085744295 -0.0092343955   -7.2124998     241.0483 
  195000  0.084917048 0.00040451776   -7.2124935     241.0483 
  196000   0.08353335  0.012656185   -7.2124898     241.0483 
  197000  0.080974611  0.029010249   -7.2124963     241.0483 
  198000   0.08459711 -5.2360874e-05   -7.2124927     241.0483 
  199000  0.081544554  0.033750007   -7.2124866     241.0483 
  200000   0.08090207  0.037413926   -7.2124882     241.0483 
  201000  0.083727465  0.007414569   -7.2124797     241.0483 
  202000  0.085864891 -0.0061962446   -7.2124806     241.0483 
  203000  0.078897461  0.051985631   -7.2124722     241.0483 
  204000  0.085786173 -0.010645275   -7.2124793     241.0483 
  205000   0.08411355 0.0051337433   -7.2124804     241.0483 
  206000  0.082496653  0.018995201   -7.2124848     241.0483 
  207000  0.081174897  0.028919513   -7.2124711     241.0483 
  208000  0.088414169 -0.032308796   -7.2124775     241.0483 
  209000  0.082518299   0.01107885   -7.2124832     241.0483 
  210000   0.08058916  0.029874868   -7.2124781     241.0483 
  211000  0.086372721 -0.020162364   -7.2124894     241.0483 
  212000  0.082285201  0.014751527   -7.2124849     241.0483 
  213000  0.085505949 -0.011154494   -7.2124754     241.0483 
  214000  0.086281612 -0.012934325   -7.2124663     241.0483 
  215000  0.083472094 0.0085865135   -7.2124726     241.0483 
  216000  0.079623851  0.039445912    -7.212469     241.0483 
  217000   0.08108011  0.026723383   -7.2124591     241.0483 
  218000  0.080986759  0.024808153   -7.2124588     241.0483 
  219000  0.086821921 -0.016291133   -7.2124578     241.0483 
  220000  0.083300184 0.0097777777   -7.2124519     241.0483 
  221000   0.07900206  0.044855886   -7.2124479     241.0483 
  222000   0.07997133  0.042859367   -7.2124476     241.0483 
  223000   0.08508062 0.0039141398   -7.2124464     241.0483 
  224000  0.078699353  0.048144833   -7.2124347     241.0483 
  225000  0.084028029 0.0026208501   -7.2124335     241.0483 
  226000  0.081718384  0.023054116   -7.2124307     241.0483 
  227000  0.087115299 -0.019484554   -7.2124387     241.0483 
  228000  0.084352133 -0.0020577653   -7.2124309     241.0483 
  229000  0.082073728   0.02268747    -7.212428     241.0483 
  230000  0.078943054   0.04868843   -7.2124229     241.0483 
  231000  0.085098951 -0.0021060755   -7.2124245     241.0483 
  232000  0.082229293  0.024305807   -7.2124233     241.0483 
  233000  0.083348966 0.0064244189   -7.2124241     241.0483 
  234000  0.082814905   0.01870267   -7.2124315     241.0483 
  235000  0.084490295 -0.00072382702   -7.2124386     241.0483 
  236000  0.083813049 0.0082580823   -7.2124444     241.0483 
  237000  0.080788365  0.030521488   -7.2124486     241.0483 
  238000  0.081953896   0.02499671   -7.2124613     241.0483 
  239000  0.078038561  0.053655319   -7.2124631     241.0483 
  240000   0.07959818  0.042061037   -7.2124658     241.0483 
  241000  0.083714194 0.0010368236   -7.2124682     241.0483 
  242000  0.082436781  0.019525604   -7.2124644     241.0483 
  243000  0.086079738 -0.014276005   -7.2124655     241.0483 
  244000  0.081056261  0.025818588   -7.2124566     241.0483 
  245000  0.079385614    0.0459833   -7.2124501     241.0483 
  246000  0.085001727 -0.0026251308   -7.2124595     241.0483 
  247000  0.083930057 0.0078526529   -7.2124693     241.0483 
  248000  0.077755077  0.057430554   -7.2124666     241.0483 
  249000  0.087954293 -0.026532244   -7.2124705     241.0483 
  250000  0.085007884 -0.0043323224   -7.2124685     241.0483 
  251000  0.084201582 0.0053953673   -7.2124705     241.0483 
  252000  0.085493323 -0.0049078892   -7.2124711     241.0483 
  253000  0.080675696  0.030759805   -7.2124624     241.0483 
  254000  0.077666421  0.057837307   -7.2124653     241.0483 
  255000  0.080979157  0.033929499   -7.2124612     241.0483 
  256000  0.084207698 0.0018418042   -7.2124582     241.0483 
  257000  0.081505851  0.025415733   -7.2124572     241.0483 
  258000  0.084602467 0.0024381097   -7.2124584     241.0483 
  259000  0.081300227  0.030163981   -7.2124476     241.0483 
  260000  0.082454074  0.013796739   -7.2124459     241.0483 
  261000  0.088181306 -0.029046242   -7.2124415     241.0483 
  262000  0.081432986  0.030458238   -7.2124349     241.0483 
  263000  0.081301768  0.024161956    -7.212436     241.0483 
  264000  0.082457818  0.017405854   -7.2124435     241.0483 
  265000   0.08275278 0.0075031027   -7.2124386     241.0483 
  266000   0.08034246  0.034915929   -7.2124372     241.0483 
  267000  0.082066721  0.024896781   -7.2124393     241.0483 
  268000  0.085074464 -0.0074425129   -7.2124406     241.0483 
  269000  0.085823296 -0.015388844   -7.2124377     241.0483 
  270000  0.079806571  0.045516954   -7.2124379     241.0483 
  271000  0.076246366  0.072722595   -7.2124346     241.0483 
  272000  0.085522758 -0.0039599079   -7.2124367     241.0483 
  273000  0.078016592  0.052940523   -7.2124256     241.0483 
  274000    0.0849901 -0.0026850843   -7.2124306     241.0483 
  275000  0.083901453   0.00857191   -7.2124206     241.0483 
  276000  0.084417893 -2.0968688e-05   -7.2124285     241.0483 
  277000   0.08489229 -0.0060032415   -7.2124334     241.0483 
  278000  0.080353737  0.034928168   -7.2124375     241.0483 
  279000  0.084691284 0.0020436126   -7.2124491     241.0483 
  280000  0.085427815 -0.0060422352   -7.2124539     241.0483 
  281000  0.082221654  0.018807166   -7.2124507     241.0483 
  282000  0.082663783  0.015669436   -7.2124535     241.0483 
  283000  0.080082412  0.038178304   -7.2124514     241.0483 
  284000  0.084534267 0.0023285289   -7.2124473     241.0483 
  285000  0.081148883  0.030188549   -7.2124432     241.0483 
  286000  0.085859031 -0.0063719956   -7.2124502     241.0483 
  287000   0.08116175  0.033542115   -7.2124588     241.0483 
  288000  0.082255976  0.020085218   -7.2124697     241.0483 
  289000  0.075736708   0.07095231   -7.2124619     241.0483 
  290000  0.085674911 -0.0040091676   -7.2124618     241.0483 
  291000   0.08683724 -0.019887397   -7.2124582     241.0483 
  292000  0.087040813 -0.017657499   -7.2124522     241.0483 
  293000  0.082395978  0.018760558   -7.2124474     241.0483 
  294000  0.082006123  0.023443781   -7.2124468     241.0483 
  295000  0.085581681 -0.0083061261   -7.2124544     241.0483 
  296000  0.078957093  0.045985127   -7.2124527     241.0483 
  297000  0.081751333  0.020979626   -7.2124572     241.0483 
  298000  0.080080365  0.034138968   -7.2124642     241.0483 
  299000  0.085099288 -0.0032869816   -7.2124788     241.0483 
  300000  0.081681293  0.020603448   -7.2124774     241.0483 
  301000  0.079883811  0.035259821   -7.2124785     241.0483 
  302000    0.0837725 0.0056276197   -7.2124868     241.0483 
  303000  0.081286834  0.023355315   -7.2124889     241.0483 
  304000  0.082977761  0.011696274   -7.2124946     241.0483 
  305000  0.083009041  0.010587465   -7.2124992     241.0483 
  306000  0.080324169  0.030224077   -7.2125035     241.0483 
  307000  0.079180562  0.046683734   -7.2125064     241.0483 
  308000   0.08174565  0.016917337   -7.2125001     241.0483 
  309000  0.083732326 0.0021086459    -7.212503     241.0483 
  310000  0.082230666  0.014882572   -7.2125109     241.0483 
  311000  0.083266148   0.01338533   -7.2125097     241.0483 
  312000  0.087757972 -0.024259996    -7.212507     241.0483 
  313000  0.083929632  0.012308012   -7.2125058     241.0483 
  314000  0.079499241  0.040802906   -7.2124993     241.0483 
  315000  0.078209134  0.048067863   -7.2124846     241.0483 
  316000  0.085920874 -0.012721459   -7.2124943     241.0483 
  317000  0.086287063 -0.0095007593   -7.2124899     241.0483 
  318000  0.081002474  0.029965493   -7.2124932     241.0483 
  319000  0.084836384  0.002347384   -7.2124876     241.0483 
  320000  0.082287901  0.018178107   -7.2124876     241.0483 
  321000  0.086046569 -0.0075812825    -7.212494     241.0483 
  322000  0.089728545 -0.043424692   -7.2124939     241.0483 
  323000  0.079954976  0.031506487   -7.2124926     241.0483 
  324000  0.083438172 0.0069731687   -7.2124941     241.0483 
  325000  0.086025357 -0.011819654   -7.2124971     241.0483 
  326000   0.08003263     0.033931   -7.2124857     241.0483 
  327000  0.085656826 -0.012404281   -7.2124829     241.0483 
  328000  0.080519963  0.030767634   -7.2124675     241.0483 
  329000  0.087839867 -0.026782017   -7.2124757     241.0483 
  330000  0.083393491 0.0099629232    -7.212473     241.0483 
  331000  0.080846248  0.029220729   -7.2124706     241.0483 
  332000  0.080316569  0.028272006   -7.2124613     241.0483 
  333000  0.083247103 0.0077411091   -7.2124574     241.0483 
  334000  0.083217414   0.01607076   -7.2124582     241.0483 
  335000  0.084388891 -0.00026952998   -7.2124575     241.0483 
  336000  0.084129968 0.0061243365   -7.2124601     241.0483 
  337000   0.08611203 -0.008525261   -7.2124566     241.0483 
  338000  0.083302932 0.0098588535   -7.2124652     241.0483 
  339000  0.085635718 -0.0071227362   -7.2124806     241.0483 
  340000  0.080594883  0.033181545   -7.2124748     241.0483 
  341000  0.081144484  0.025684431   -7.2124748     241.0483 
  342000  0.085461893 -0.0058855665   -7.2124747     241.0483 
  343000  0.082135462  0.021444592    -7.212471     241.0483 
  344000  0.080965078   0.03342384   -7.2124633     241.0483 
  345000   0.07815292  0.055092957   -7.2124674     241.0483 
  346000   0.07932828  0.046390072   -7.2124728     241.0483 
  347000   0.08533828 -0.011039424   -7.2124709     241.0483 
  348000  0.084342177 0.0031769662   -7.2124772     241.0483 
  349000   0.08384877 0.0098191085   -7.2124734     241.0483 
  350000  0.084217194 -0.0020367745   -7.2124673     241.0483 
Loop time of 83.4831 on 2 procs for 250000 steps with 256 atoms

Pair  time (%) = 53.5199 (64.1087)
Neigh time (%) = 0.00511909 (0.00613188)
Comm  time (%) = 26.3506 (31.5641)
Outpt time (%) = 0.0100954 (0.0120927)
Other time (%) = 3.5973 (4.30902)

Nlocal:    128 ave 131 max 125 min
Histogram: 1 0 0 0 0 0 0 0 0 1
Nghost:    1109 ave 1112 max 1106 min
Histogram: 1 0 0 0 0 0 0 0 0 1
Neighs:    5505 ave 5640 max 5370 min
Histogram: 1 0 0 0 0 0 0 0 0 1

Total # of neighbors = 11010
Ave neighs/atom = 43.0078
Neighbor list builds = 9
Dangerous builds = 0
#	run             	10000
	unfix 			1
#------SED-------------------------------------------------------------------------
label loop_fft
variable ifft loop ${num_ffts}
variable ifft loop 1

log 	log_SED_${iseed}_${ifft}.lammps
log 	log_SED_6_${ifft}.lammps
log 	log_SED_6_1.lammps
