	reset_timestep  	0
	fix 			1 all nve
	dump 			vel all custom ${w_step} dump_${iseed}_${ifft}.vel vx vy vz
	dump 			vel all custom 32 dump_${iseed}_${ifft}.vel vx vy vz
	dump 			vel all custom 32 dump_7_${ifft}.vel vx vy vz
	dump 			vel all custom 32 dump_7_1.vel vx vy vz
	dump_modify 		vel sort id
	dump 			pos all custom ${w_step} dump_${iseed}_${ifft}.pos xu yu zu
	dump 			pos all custom 32 dump_${iseed}_${ifft}.pos xu yu zu
	dump 			pos all custom 32 dump_7_${ifft}.pos xu yu zu
	dump 			pos all custom 32 dump_7_1.pos xu yu zu
	dump_modify 		pos sort id
	thermo_style 		custom step temp press vol
	thermo			5000
	timestep		${dt}
	timestep		0.002
	run			${w_total}
	run			131072
Memory usage per processor = 1.64301 Mbytes
Step Temp Press Volume 
       0  0.079971048 0.0079778656     241.0483 
    5000   0.08060189 0.00069922003     241.0483 
   10000  0.083719287 -0.016557554     241.0483 
   15000  0.081413383 -0.0023340585     241.0483 
   20000  0.082460733 -0.0059664206     241.0483 
   25000  0.079276256  0.021485003     241.0483 
   30000  0.084998828 -0.033868194     241.0483 
   35000  0.079442129  0.015009403     241.0483 
   40000  0.082196431 -0.010614628     241.0483 
   45000  0.077544497  0.033242521     241.0483 
   50000  0.082055239 -0.0043029844     241.0483 
   55000  0.083007066 -0.015504497     241.0483 
   60000  0.081194873 0.0039002329     241.0483 
   65000  0.084387179 -0.027382408     241.0483 
   70000   0.07718212  0.031397565     241.0483 
   75000  0.076875743  0.037864664     241.0483 
   80000  0.078873804  0.026369546     241.0483 
   85000  0.080632187  0.012326397     241.0483 
   90000  0.077171943  0.034674071     241.0483 
   95000  0.082299573 -0.010057495     241.0483 
  100000  0.083149625 -0.0090758232     241.0483 
  105000  0.078749038  0.022628886     241.0483 
  110000  0.080885482 0.0079976296     241.0483 
  115000  0.086542065 -0.045749758     241.0483 
  120000  0.083505661 -0.017681402     241.0483 
  125000  0.080669905 0.0058656785     241.0483 
  130000  0.084168622 -0.015698603     241.0483 
  131072   0.08302732 -0.0061711373     241.0483 
Loop time of 63.6019 on 2 procs for 131072 steps with 256 atoms

Pair  time (%) = 28.6765 (45.0875)
Neigh time (%) = 0 (0)
Comm  time (%) = 15.1857 (23.8762)
Outpt time (%) = 16.9883 (26.7103)
Other time (%) = 2.75141 (4.32599)

Nlocal:    128 ave 130 max 126 min
Histogram: 1 0 0 0 0 0 0 0 0 1
Nghost:    1109 ave 1111 max 1107 min
Histogram: 1 0 0 0 0 0 0 0 0 1
Neighs:    5504 ave 5581 max 5427 min
Histogram: 1 0 0 0 0 0 0 0 0 1

Total # of neighbors = 11008
Ave neighs/atom = 43
Neighbor list builds = 0
Dangerous builds = 0
	unfix			1
	undump			vel
	undump			pos

next ifft
jump lmp.in.sed.7 loop_fft

