	reset_timestep  	0
	fix 			1 all nve
	dump 			vel all custom ${w_step} dump_${iseed}_${ifft}.vel vx vy vz
	dump 			vel all custom 32 dump_${iseed}_${ifft}.vel vx vy vz
	dump 			vel all custom 32 dump_8_${ifft}.vel vx vy vz
	dump 			vel all custom 32 dump_8_1.vel vx vy vz
	dump_modify 		vel sort id
	dump 			pos all custom ${w_step} dump_${iseed}_${ifft}.pos xu yu zu
	dump 			pos all custom 32 dump_${iseed}_${ifft}.pos xu yu zu
	dump 			pos all custom 32 dump_8_${ifft}.pos xu yu zu
	dump 			pos all custom 32 dump_8_1.pos xu yu zu
	dump_modify 		pos sort id
	thermo_style 		custom step temp press vol
	thermo			5000
	timestep		${dt}
	timestep		0.002
	run			${w_total}
	run			131072
Memory usage per processor = 1.6431 Mbytes
Step Temp Press Volume 
       0  0.083535283 -0.0054206983     241.0483 
    5000  0.081060496  0.012151842     241.0483 
   10000  0.078523076  0.030004466     241.0483 
   15000  0.081491255 0.0042222817     241.0483 
   20000  0.079744651  0.023347868     241.0483 
   25000  0.076027824  0.052019034     241.0483 
   30000  0.082603043 0.00016115341     241.0483 
   35000  0.083787487 -0.013214465     241.0483 
   40000  0.083616706 -0.009230911     241.0483 
   45000  0.081409537 0.0057218091     241.0483 
   50000  0.080393714  0.019757953     241.0483 
   55000  0.082952234 -0.0042729863     241.0483 
   60000  0.079882423  0.026232819     241.0483 
   65000  0.080038697  0.025008474     241.0483 
   70000  0.083224135 0.0028640825     241.0483 
   75000  0.081839588 0.0075440392     241.0483 
   80000   0.07939457  0.027162713     241.0483 
   85000   0.08254323 0.0017477969     241.0483 
   90000  0.079210791  0.023699255     241.0483 
   95000  0.081408101  0.010136154     241.0483 
  100000  0.085245132 -0.015785251     241.0483 
  105000  0.077573983  0.045730758     241.0483 
  110000  0.080183283  0.020164107     241.0483 
  115000  0.078308656   0.03271098     241.0483 
  120000  0.084544292 -0.017688973     241.0483 
  125000  0.076310605  0.050164042     241.0483 
  130000  0.078515162  0.041608476     241.0483 
  131072  0.081064083  0.017574331     241.0483 
Loop time of 58.4967 on 2 procs for 131072 steps with 256 atoms

Pair  time (%) = 29.9953 (51.2769)
Neigh time (%) = 0.00115097 (0.00196757)
Comm  time (%) = 13.3722 (22.8597)
Outpt time (%) = 12.6893 (21.6924)
Other time (%) = 2.43881 (4.16914)

Nlocal:    128 ave 133 max 123 min
Histogram: 1 0 0 0 0 0 0 0 0 1
Nghost:    1109 ave 1114 max 1104 min
Histogram: 1 0 0 0 0 0 0 0 0 1
Neighs:    5504 ave 5711 max 5297 min
Histogram: 1 0 0 0 0 0 0 0 0 1

Total # of neighbors = 11008
Ave neighs/atom = 43
Neighbor list builds = 2
Dangerous builds = 0
	unfix			1
	undump			vel
	undump			pos

next ifft
jump lmp.in.sed.8 loop_fft

