	reset_timestep  	0
	fix 			1 all nve
	dump 			vel all custom ${w_step} dump_${iseed}_${ifft}.vel vx vy vz
	dump 			vel all custom 32 dump_${iseed}_${ifft}.vel vx vy vz
	dump 			vel all custom 32 dump_19_${ifft}.vel vx vy vz
	dump 			vel all custom 32 dump_19_1.vel vx vy vz
	dump_modify 		vel sort id
	dump 			pos all custom ${w_step} dump_${iseed}_${ifft}.pos xu yu zu
	dump 			pos all custom 32 dump_${iseed}_${ifft}.pos xu yu zu
	dump 			pos all custom 32 dump_19_${ifft}.pos xu yu zu
	dump 			pos all custom 32 dump_19_1.pos xu yu zu
	dump_modify 		pos sort id
	thermo_style 		custom step temp press vol
	thermo			5000
	timestep		${dt}
	timestep		0.002
	run			${w_total}
	run			131072
Memory usage per processor = 1.64296 Mbytes
Step Temp Press Volume 
       0  0.078270899 -0.0034536139     241.0483 
    5000  0.080143921 -0.018646457     241.0483 
   10000  0.080867977 -0.023293133     241.0483 
   15000  0.077867962 0.0014224867     241.0483 
   20000  0.081249196  -0.02511953     241.0483 
   25000  0.077080498 0.0061699509     241.0483 
   30000  0.077069375 0.0080395422     241.0483 
   35000  0.077384272 0.0049120184     241.0483 
   40000  0.077886856 -0.004851983     241.0483 
   45000  0.079887785 -0.017987431     241.0483 
   50000  0.078651038 -0.0082200084     241.0483 
   55000   0.07922171 -0.014353878     241.0483 
   60000  0.079532078 -0.012200258     241.0483 
   65000  0.077547747 -0.0027549728     241.0483 
   70000  0.079004013 -0.010699691     241.0483 
   75000  0.079878194 -0.018676701     241.0483 
   80000  0.079132715 -0.015155909     241.0483 
   85000    0.0831322 -0.046869112     241.0483 
   90000  0.083023927 -0.040932789     241.0483 
   95000  0.076935662 0.0056104233     241.0483 
  100000  0.079858636 -0.015698357     241.0483 
  105000  0.078824709 -0.0071367066     241.0483 
  110000  0.086795553 -0.073873157     241.0483 
  115000  0.082027387 -0.039652818     241.0483 
  120000  0.075042296  0.018149854     241.0483 
  125000  0.080636955 -0.027845227     241.0483 
  130000  0.080296159 -0.027378929     241.0483 
  131072  0.081696411 -0.036834628     241.0483 
Loop time of 58.976 on 2 procs for 131072 steps with 256 atoms

Pair  time (%) = 29.0943 (49.3324)
Neigh time (%) = 0.00285542 (0.00484166)
Comm  time (%) = 14.2701 (24.1964)
Outpt time (%) = 13.1686 (22.3287)
Other time (%) = 2.4402 (4.13762)

Nlocal:    128 ave 131 max 125 min
Histogram: 1 0 0 0 0 0 0 0 0 1
Nghost:    1109 ave 1112 max 1106 min
Histogram: 1 0 0 0 0 0 0 0 0 1
Neighs:    5504 ave 5626 max 5382 min
Histogram: 1 0 0 0 0 0 0 0 0 1

Total # of neighbors = 11008
Ave neighs/atom = 43
Neighbor list builds = 5
Dangerous builds = 0
	unfix			1
	undump			vel
	undump			pos

next ifft
jump lmp.in.sed.19 loop_fft

