	reset_timestep  	0
	fix 			1 all nve
	dump 			vel all custom ${w_step} dump_${iseed}_${ifft}.vel vx vy vz
	dump 			vel all custom 32 dump_${iseed}_${ifft}.vel vx vy vz
	dump 			vel all custom 32 dump_16_${ifft}.vel vx vy vz
	dump 			vel all custom 32 dump_16_1.vel vx vy vz
	dump_modify 		vel sort id
	dump 			pos all custom ${w_step} dump_${iseed}_${ifft}.pos xu yu zu
	dump 			pos all custom 32 dump_${iseed}_${ifft}.pos xu yu zu
	dump 			pos all custom 32 dump_16_${ifft}.pos xu yu zu
	dump 			pos all custom 32 dump_16_1.pos xu yu zu
	dump_modify 		pos sort id
	thermo_style 		custom step temp press vol
	thermo			5000
	timestep		${dt}
	timestep		0.002
	run			${w_total}
	run			131072
Memory usage per processor = 1.64304 Mbytes
Step Temp Press Volume 
       0  0.090167258 -0.017459267     241.0483 
    5000  0.081025517  0.050414902     241.0483 
   10000  0.085009638  0.016258385     241.0483 
   15000  0.083896303  0.025980891     241.0483 
   20000   0.08800714 -0.0024566219     241.0483 
   25000  0.080369872  0.056161451     241.0483 
   30000  0.087362023 0.00081359089     241.0483 
   35000  0.083457322  0.038535029     241.0483 
   40000  0.082278356  0.036737202     241.0483 
   45000  0.083936057  0.027478317     241.0483 
   50000  0.088247826 -0.0018680496     241.0483 
   55000  0.083689839  0.034432531     241.0483 
   60000   0.07809339  0.078933181     241.0483 
   65000  0.077759988  0.079918463     241.0483 
   70000  0.084799129  0.021571869     241.0483 
   75000  0.085220304  0.020662736     241.0483 
   80000  0.082422621  0.044985866     241.0483 
   85000  0.085161904  0.024675344     241.0483 
   90000  0.080293975  0.065152047     241.0483 
   95000   0.08001242  0.064579611     241.0483 
  100000  0.083546327    0.0340969     241.0483 
  105000  0.088629044 -0.0057323525     241.0483 
  110000  0.084449118  0.030589634     241.0483 
  115000  0.084326225  0.026813668     241.0483 
  120000  0.088164074 -0.0002432418     241.0483 
  125000  0.082320972  0.041300273     241.0483 
  130000   0.08574827  0.017660978     241.0483 
  131072  0.086060398  0.017820577     241.0483 
Loop time of 51.5558 on 2 procs for 131072 steps with 256 atoms

Pair  time (%) = 29.2872 (56.8067)
Neigh time (%) = 0.000562906 (0.00109184)
Comm  time (%) = 12.5297 (24.3032)
Outpt time (%) = 5.64936 (10.9577)
Other time (%) = 4.08903 (7.93126)

Nlocal:    128 ave 132 max 124 min
Histogram: 1 0 0 0 0 0 0 0 0 1
Nghost:    1109 ave 1113 max 1105 min
Histogram: 1 0 0 0 0 0 0 0 0 1
Neighs:    5504 ave 5671 max 5337 min
Histogram: 1 0 0 0 0 0 0 0 0 1

Total # of neighbors = 11008
Ave neighs/atom = 43
Neighbor list builds = 1
Dangerous builds = 0
	unfix			1
	undump			vel
	undump			pos

next ifft
jump lmp.in.sed.16 loop_fft

