	reset_timestep  	0
	fix 			1 all nve
	dump 			vel all custom ${w_step} dump_${iseed}_${ifft}.vel vx vy vz
	dump 			vel all custom 32 dump_${iseed}_${ifft}.vel vx vy vz
	dump 			vel all custom 32 dump_13_${ifft}.vel vx vy vz
	dump 			vel all custom 32 dump_13_1.vel vx vy vz
	dump_modify 		vel sort id
	dump 			pos all custom ${w_step} dump_${iseed}_${ifft}.pos xu yu zu
	dump 			pos all custom 32 dump_${iseed}_${ifft}.pos xu yu zu
	dump 			pos all custom 32 dump_13_${ifft}.pos xu yu zu
	dump 			pos all custom 32 dump_13_1.pos xu yu zu
	dump_modify 		pos sort id
	thermo_style 		custom step temp press vol
	thermo			5000
	timestep		${dt}
	timestep		0.002
	run			${w_total}
	run			131072
Memory usage per processor = 1.6431 Mbytes
Step Temp Press Volume 
       0  0.086197611  0.011556256     241.0483 
    5000   0.08309202  0.037882494     241.0483 
   10000  0.084950694   0.02197288     241.0483 
   15000  0.083972125  0.026877062     241.0483 
   20000  0.082491564  0.040531992     241.0483 
   25000  0.080685674  0.057651748     241.0483 
   30000  0.088865312 -0.0058175032     241.0483 
   35000  0.086342329  0.011747335     241.0483 
   40000  0.086038684  0.018210736     241.0483 
   45000  0.079867137  0.063692657     241.0483 
   50000  0.086185629  0.020193392     241.0483 
   55000  0.083380046  0.031956173     241.0483 
   60000  0.077174347    0.0839814     241.0483 
   65000  0.089671297 -0.014866683     241.0483 
   70000  0.084359263  0.024146446     241.0483 
   75000  0.078867741   0.07207302     241.0483 
   80000  0.087946565 0.0015573031     241.0483 
   85000  0.080688617   0.05699754     241.0483 
   90000  0.086871465 0.0069077752     241.0483 
   95000  0.081576727   0.04272775     241.0483 
  100000  0.091927598 -0.036168629     241.0483 
  105000  0.082579484  0.041707771     241.0483 
  110000  0.087333491 0.0031419495     241.0483 
  115000   0.08107452  0.049109718     241.0483 
  120000  0.078141033  0.077642398     241.0483 
  125000  0.085790566  0.013923955     241.0483 
  130000  0.082448679  0.042468264     241.0483 
  131072  0.094578689 -0.054747882     241.0483 
Loop time of 56.0032 on 2 procs for 131072 steps with 256 atoms

Pair  time (%) = 28.6442 (51.1474)
Neigh time (%) = 0 (0)
Comm  time (%) = 16.1524 (28.8419)
Outpt time (%) = 8.54189 (15.2525)
Other time (%) = 2.66473 (4.75817)

Nlocal:    128 ave 132 max 124 min
Histogram: 1 0 0 0 0 0 0 0 0 1
Nghost:    1109 ave 1113 max 1105 min
Histogram: 1 0 0 0 0 0 0 0 0 1
Neighs:    5504 ave 5683 max 5325 min
Histogram: 1 0 0 0 0 0 0 0 0 1

Total # of neighbors = 11008
Ave neighs/atom = 43
Neighbor list builds = 0
Dangerous builds = 0
	unfix			1
	undump			vel
	undump			pos

next ifft
jump lmp.in.sed.13 loop_fft

