	reset_timestep  	0
	fix 			1 all nve
	dump 			vel all custom ${w_step} dump_${iseed}_${ifft}.vel vx vy vz
	dump 			vel all custom 32 dump_${iseed}_${ifft}.vel vx vy vz
	dump 			vel all custom 32 dump_15_${ifft}.vel vx vy vz
	dump 			vel all custom 32 dump_15_1.vel vx vy vz
	dump_modify 		vel sort id
	dump 			pos all custom ${w_step} dump_${iseed}_${ifft}.pos xu yu zu
	dump 			pos all custom 32 dump_${iseed}_${ifft}.pos xu yu zu
	dump 			pos all custom 32 dump_15_${ifft}.pos xu yu zu
	dump 			pos all custom 32 dump_15_1.pos xu yu zu
	dump_modify 		pos sort id
	thermo_style 		custom step temp press vol
	thermo			5000
	timestep		${dt}
	timestep		0.002
	run			${w_total}
	run			131072
Memory usage per processor = 1.64298 Mbytes
Step Temp Press Volume 
       0  0.078433297  0.083631761     241.0483 
    5000  0.088885207 0.0032741233     241.0483 
   10000  0.089080039 -0.0058515124     241.0483 
   15000  0.088405881 0.0054498792     241.0483 
   20000  0.081241586   0.05804107     241.0483 
   25000  0.082815655   0.05088341     241.0483 
   30000  0.087761903  0.010118884     241.0483 
   35000  0.084606007   0.03882052     241.0483 
   40000  0.086687837  0.021925592     241.0483 
   45000  0.085166626  0.028315594     241.0483 
   50000  0.082116764   0.06239688     241.0483 
   55000  0.085504354  0.032995635     241.0483 
   60000  0.088659214 0.0056117119     241.0483 
   65000   0.08152526  0.068626114     241.0483 
   70000  0.083574032  0.045933138     241.0483 
   75000  0.086983999  0.017928384     241.0483 
   80000  0.086676629  0.020079052     241.0483 
   85000  0.083896634  0.044068688     241.0483 
   90000  0.087386795   0.01616926     241.0483 
   95000  0.082594758  0.054985511     241.0483 
  100000  0.085732954  0.029075129     241.0483 
  105000  0.087115432  0.017949695     241.0483 
  110000  0.083608798   0.05021319     241.0483 
  115000  0.084341188  0.037351272     241.0483 
  120000  0.084284766  0.041282338     241.0483 
  125000  0.085663885  0.025651262     241.0483 
  130000  0.084549813  0.037165695     241.0483 
  131072   0.09208615 -0.020562096     241.0483 
Loop time of 65.047 on 2 procs for 131072 steps with 256 atoms

Pair  time (%) = 28.5051 (43.8223)
Neigh time (%) = 0.0057292 (0.00880779)
Comm  time (%) = 13.5283 (20.7978)
Outpt time (%) = 20.5384 (31.5747)
Other time (%) = 2.46946 (3.79643)

Nlocal:    128 ave 130 max 126 min
Histogram: 1 0 0 0 0 0 0 0 0 1
Nghost:    1109 ave 1111 max 1107 min
Histogram: 1 0 0 0 0 0 0 0 0 1
Neighs:    5503.5 ave 5597 max 5410 min
Histogram: 1 0 0 0 0 0 0 0 0 1

Total # of neighbors = 11007
Ave neighs/atom = 42.9961
Neighbor list builds = 10
Dangerous builds = 0
	unfix			1
	undump			vel
	undump			pos

next ifft
jump lmp.in.sed.15 loop_fft

