
#------------ NVE rescale ---------------------------------------------------------------------	
	velocity 		all create ${T_run} ${seed} rot yes dist gaussian
	velocity 		all create 0.08267367665 ${seed} rot yes dist gaussian
	velocity 		all create 0.08267367665 20202020 rot yes dist gaussian
	fix 			1 all nve
	fix 			2 all temp/rescale 1 ${T_run} ${T_run} 0.01 1.0
	fix 			2 all temp/rescale 1 0.08267367665 ${T_run} 0.01 1.0
	fix 			2 all temp/rescale 1 0.08267367665 0.08267367665 0.01 1.0
	timestep		${dt}
	timestep		0.002
	thermo_style  	custom step temp press etotal vol
	thermo			1000
	run             	100000	
Memory usage per processor = 1.36469 Mbytes
Step Temp Press TotEng Volume 
       0  0.082673677  -0.71664588   -7.3350923     241.0483 
    1000  0.084781689 -0.037786609   -7.2202443     241.0483 
    2000  0.079177228   0.10298018   -7.2051633     241.0483 
    3000  0.073760361  0.043027599   -7.2205657     241.0483 
    4000  0.077022493  0.014950265   -7.2205667     241.0483 
    5000  0.082536498 -0.025207037   -7.2205691     241.0483 
    6000  0.078477159  0.010672454   -7.2205671     241.0483 
    7000  0.081068799 -0.023450666   -7.2205582     241.0483 
    8000  0.079347216 -0.0095375151   -7.2205609     241.0483 
    9000  0.080873399  0.078040126     -7.20528     241.0483 
   10000  0.082791968  0.063616231   -7.2052831     241.0483 
   11000  0.085559822  0.045062084   -7.2052859     241.0483 
   12000  0.090240471 0.0011945807   -7.2052902     241.0483 
   13000  0.086016662  0.029709478   -7.2052899     241.0483 
   14000  0.088168663  0.017918548   -7.2052901     241.0483 
   15000  0.077746169  0.009577265   -7.2203489     241.0483 
   16000  0.075545791  0.026539506   -7.2203418     241.0483 
   17000  0.077758639  0.013843671   -7.2203383     241.0483 
   18000   0.08021372 -0.011514014   -7.2203402     241.0483 
   19000  0.081686673 -0.027692575   -7.2203316     241.0483 
   20000    0.0825729 -0.034162012   -7.2203309     241.0483 
   21000  0.078717389 -0.00098945604   -7.2203293     241.0483 
   22000  0.082727116 -0.037133846   -7.2203366     241.0483 
   23000  0.082677839 -0.034755734   -7.2203419     241.0483 
   24000  0.079098674 -0.0032079191   -7.2203451     241.0483 
   25000  0.081403157   0.07045924   -7.2053874     241.0483 
   26000  0.076103816  0.019315278   -7.2203545     241.0483 
   27000  0.086343027 -0.061946374   -7.2203617     241.0483 
   28000  0.082386874 -0.029687279   -7.2203487     241.0483 
   29000  0.076567184   0.01677116   -7.2203525     241.0483 
   30000  0.081829679 -0.028601721   -7.2203515     241.0483 
   31000  0.079933249 -0.0099472865     -7.22035     241.0483 
   32000  0.075035508  0.024675975   -7.2207458     241.0483 
   33000  0.080036993 -0.012517558   -7.2207545     241.0483 
   34000  0.086380073  0.026928187   -7.2056328     241.0483 
   35000  0.077729953 0.00085647059   -7.2208763     241.0483 
   36000  0.081137809 -0.024674346   -7.2208833     241.0483 
   37000   0.08205239 -0.031029958   -7.2208879     241.0483 
   38000  0.078459716  0.092134293    -7.205233     241.0483 
   39000  0.087244061  0.026260262   -7.2052403     241.0483 
   40000  0.086381226  0.037552547    -7.205231     241.0483 
   41000  0.080050754 -0.012575353   -7.2206752     241.0483 
   42000  0.082841269 -0.033643441   -7.2206793     241.0483 
   43000  0.079637964 -0.0057601279   -7.2206711     241.0483 
   44000  0.079110571 -0.0019032481    -7.220673     241.0483 
   45000  0.081476886 -0.024418108   -7.2206739     241.0483 
   46000  0.078244139 0.0022420284   -7.2206727     241.0483 
   47000  0.082417889 -0.035588406    -7.220675     241.0483 
   48000  0.073591911  0.034716522   -7.2206704     241.0483 
   49000  0.080731523 -0.020774469   -7.2206756     241.0483 
   50000  0.080897287  0.074163997   -7.2056806     241.0483 
   51000  0.084936015  0.037202127   -7.2056855     241.0483 
   52000  0.087367558  0.020878213   -7.2056785     241.0483 
   53000  0.083250394   0.05280005   -7.2056672     241.0483 
   54000  0.081532446  0.069734916   -7.2056624     241.0483 
   55000  0.086353672   0.02892209   -7.2056642     241.0483 
   56000  0.084555917  0.045127615    -7.205659     241.0483 
   57000  0.088766148  0.010179573    -7.205665     241.0483 
   58000  0.077240364  0.099220267   -7.2056612     241.0483 
   59000  0.090721262 -0.0079115926    -7.205671     241.0483 
   60000  0.083784504 -0.044685299   -7.2209846     241.0483 
   61000  0.084107716  -0.04729012   -7.2209789     241.0483 
   62000  0.075481595  0.024152412   -7.2209725     241.0483 
   63000  0.083619026 -0.043094702   -7.2209803     241.0483 
   64000  0.084979733  0.032056442   -7.2060178     241.0483 
   65000  0.085691696  0.025959971   -7.2060236     241.0483 
   66000  0.086345255  0.026953039   -7.2060164     241.0483 
   67000  0.082411151  0.053569508   -7.2061077     241.0483 
   68000  0.083013293  0.046504941   -7.2061052     241.0483 
   69000  0.085098469   0.03627795   -7.2061176     241.0483 
   70000  0.085953541  0.030561523   -7.2061184     241.0483 
   71000  0.079916872  0.074758227   -7.2061247     241.0483 
   72000  0.088504171   0.01426146   -7.2061344     241.0483 
   73000  0.081779512  0.062296049   -7.2061317     241.0483 
   74000   0.08467252  0.041148513   -7.2061332     241.0483 
   75000  0.085847649  -0.06241131   -7.2212922     241.0483 
   76000  0.082613528  0.056297915   -7.2061956     241.0483 
   77000  0.082982776   0.05509838   -7.2061927     241.0483 
   78000  0.077133242 0.0077404125   -7.2215104     241.0483 
   79000  0.080468914  -0.01905567   -7.2215081     241.0483 
   80000  0.080484225  0.074902374   -7.2066437     241.0483 
   81000  0.084393938    0.0415012   -7.2066376     241.0483 
   82000  0.088129795  0.010211259    -7.206632     241.0483 
   83000  0.079732211 -0.010390383   -7.2216369     241.0483 
   84000   0.08027685  -0.01865726   -7.2216235     241.0483 
   85000  0.080332399  -0.01739886   -7.2216286     241.0483 
   86000  0.081235844  0.066881064   -7.2062125     241.0483 
   87000  0.080418541  0.071554382   -7.2062122     241.0483 
   88000  0.083021197  0.051133166   -7.2062123     241.0483 
   89000  0.082147579  0.060879881   -7.2062087     241.0483 
   90000  0.081250421   0.06181319   -7.2062064     241.0483 
   91000  0.085313824   0.03043844   -7.2062042     241.0483 
   92000  0.081178084  0.066931914   -7.2060411     241.0483 
   93000  0.088835155 0.0048905722   -7.2060416     241.0483 
   94000  0.086114664  0.026608185   -7.2060498     241.0483 
   95000  0.086579719  0.022039267    -7.206045     241.0483 
   96000  0.083593625 -0.043113567   -7.2210868     241.0483 
   97000  0.078805768 -0.0088603341   -7.2210868     241.0483 
   98000  0.084844671  0.040535494   -7.2060201     241.0483 
   99000  0.088517383  0.009449747   -7.2060201     241.0483 
  100000  0.079690909  0.082528411   -7.2060182     241.0483 
Loop time of 32.6439 on 2 procs for 100000 steps with 256 atoms

Pair  time (%) = 21.5633 (66.056)
Neigh time (%) = 0 (0)
Comm  time (%) = 9.4069 (28.8167)
Outpt time (%) = 0.00374842 (0.0114827)
Other time (%) = 1.67 (5.1158)

Nlocal:    128 ave 128 max 128 min
Histogram: 2 0 0 0 0 0 0 0 0 0
Nghost:    1109 ave 1109 max 1109 min
Histogram: 2 0 0 0 0 0 0 0 0 0
Neighs:    5504 ave 5504 max 5504 min
Histogram: 2 0 0 0 0 0 0 0 0 0

Total # of neighbors = 11008
Ave neighs/atom = 43
Neighbor list builds = 0
Dangerous builds = 0
#	run             	1000
	unfix 			1
	unfix 			2
#------------ NVE -----------------------------------------------------------------------------	
	fix 			1 all nve
	timestep		${dt}
	timestep		0.002
	thermo_style  	custom step temp press etotal vol
	thermo			1000
	run             	250000	
Memory usage per processor = 1.36469 Mbytes
Step Temp Press TotEng Volume 
  100000  0.079690909  0.082528411   -7.2060182     241.0483 
  101000  0.081513711  0.066327819    -7.206019     241.0483 
  102000   0.08674084  0.024574454   -7.2060167     241.0483 
  103000  0.087650962  0.014606051   -7.2060158     241.0483 
  104000  0.083276245  0.051310304   -7.2060199     241.0483 
  105000  0.078706696  0.081725453   -7.2060234     241.0483 
  106000  0.084444168  0.039043995   -7.2060215     241.0483 
  107000  0.083763871  0.042791881   -7.2060182     241.0483 
  108000  0.080679192  0.068166592   -7.2060191     241.0483 
  109000  0.088203166  0.012855627   -7.2060301     241.0483 
  110000  0.082787331  0.051944432   -7.2060136     241.0483 
  111000  0.087841494  0.017487884   -7.2060104     241.0483 
  112000  0.078306453  0.093674438   -7.2060049     241.0483 
  113000  0.088933483 0.0036841216   -7.2060082     241.0483 
  114000  0.084886563  0.035909015   -7.2060051     241.0483 
  115000   0.08732663  0.022390979    -7.206002     241.0483 
  116000  0.086864423  0.018238767   -7.2060045     241.0483 
  117000  0.083997693  0.041403254   -7.2060016     241.0483 
  118000  0.085749053  0.030917958   -7.2059963     241.0483 
  119000  0.085352171  0.034203685   -7.2059827     241.0483 
  120000  0.086979179  0.018940225   -7.2059849     241.0483 
  121000  0.085510776  0.028782017   -7.2059766     241.0483 
  122000  0.085749157  0.030779936   -7.2059678     241.0483 
  123000  0.083942603  0.047882263   -7.2059563     241.0483 
  124000  0.084279503  0.039621644   -7.2059591     241.0483 
  125000  0.087811021  0.014719119   -7.2059691     241.0483 
  126000  0.083688669  0.049785521   -7.2059666     241.0483 
  127000  0.084892148  0.043310051    -7.205963     241.0483 
  128000    0.0890417 0.0019030368   -7.2059597     241.0483 
  129000   0.08407699  0.037598403   -7.2059577     241.0483 
  130000   0.08401545  0.044776836   -7.2059526     241.0483 
  131000  0.081721849   0.05907506    -7.205949     241.0483 
  132000  0.085564622  0.034131033   -7.2059496     241.0483 
  133000  0.089258204 0.0051734224   -7.2059568     241.0483 
  134000  0.083345555  0.053451329   -7.2059492     241.0483 
  135000  0.087835373  0.014821409   -7.2059401     241.0483 
  136000   0.08549124  0.033832918   -7.2059356     241.0483 
  137000  0.082573841  0.064016661   -7.2059275     241.0483 
  138000  0.083917277  0.044184617   -7.2059362     241.0483 
  139000  0.081243343  0.070549634   -7.2059276     241.0483 
  140000  0.086703144  0.024191977   -7.2059387     241.0483 
  141000  0.087576055  0.015286829   -7.2059498     241.0483 
  142000  0.084222836  0.044991227    -7.205953     241.0483 
  143000  0.081984908  0.068214141   -7.2059474     241.0483 
  144000  0.087961493  0.021981752   -7.2059539     241.0483 
  145000  0.081905589  0.063504236   -7.2059532     241.0483 
  146000  0.089573563 0.0018054504   -7.2059558     241.0483 
  147000   0.08929885  0.004330092   -7.2059613     241.0483 
  148000   0.08499707  0.042284675   -7.2059643     241.0483 
  149000  0.082114114  0.066042516   -7.2059668     241.0483 
  150000  0.089960799 -0.0033476722   -7.2059775     241.0483 
  151000  0.084902711  0.036840887   -7.2059681     241.0483 
  152000  0.082010869   0.06401537   -7.2059677     241.0483 
  153000  0.087629965  0.012881999   -7.2059743     241.0483 
  154000  0.087126783  0.017720597   -7.2059633     241.0483 
  155000  0.083833183  0.049779518   -7.2059607     241.0483 
  156000  0.082646649  0.053772768    -7.205959     241.0483 
  157000  0.082206238  0.065891932   -7.2059669     241.0483 
  158000  0.084281227  0.041634513   -7.2059612     241.0483 
  159000  0.084165094  0.041725658   -7.2059572     241.0483 
  160000  0.086042723  0.025286124   -7.2059647     241.0483 
  161000  0.083854879  0.047132953   -7.2059647     241.0483 
  162000  0.082895172  0.053651111    -7.205962     241.0483 
  163000  0.085576997  0.035413455   -7.2059523     241.0483 
  164000  0.085688986  0.035416918   -7.2059616     241.0483 
  165000  0.086965006  0.023145055   -7.2059586     241.0483 
  166000  0.083193758  0.055405367   -7.2059567     241.0483 
  167000  0.085196663  0.036780157    -7.205957     241.0483 
  168000  0.083738229  0.055672166   -7.2059616     241.0483 
  169000  0.077941333  0.096328861   -7.2059531     241.0483 
  170000  0.084859019   0.03890658   -7.2059441     241.0483 
  171000   0.09087793 -0.0075553456   -7.2059366     241.0483 
  172000  0.085115374  0.039877607   -7.2059337     241.0483 
  173000  0.084284353  0.042367335   -7.2059297     241.0483 
  174000  0.087181237  0.023469273   -7.2059384     241.0483 
  175000  0.085427567  0.032975571   -7.2059396     241.0483 
  176000  0.077794688   0.10114578   -7.2059324     241.0483 
  177000  0.086892722  0.022907421   -7.2059296     241.0483 
  178000  0.087451067  0.020236147   -7.2059333     241.0483 
  179000  0.080869439  0.072360358   -7.2059328     241.0483 
  180000  0.081295123  0.062386157   -7.2059333     241.0483 
  181000  0.088099455  0.013291654   -7.2059308     241.0483 
  182000  0.087423355  0.018933796   -7.2059266     241.0483 
  183000  0.088743226 0.0057716149   -7.2059297     241.0483 
  184000  0.081970307   0.05751302   -7.2059287     241.0483 
  185000  0.084100174  0.047260675   -7.2059304     241.0483 
  186000  0.083272562  0.054133871   -7.2059295     241.0483 
  187000  0.082495042  0.055511952   -7.2059315     241.0483 
  188000  0.091376821 -0.013455231    -7.205939     241.0483 
  189000  0.082062487  0.058191891   -7.2059293     241.0483 
  190000  0.083555556  0.049199519   -7.2059264     241.0483 
  191000   0.08953436 -0.0033285382   -7.2059331     241.0483 
  192000  0.087765186  0.014637024   -7.2059325     241.0483 
  193000  0.083758475  0.046253502   -7.2059323     241.0483 
  194000  0.087822588    0.0148847   -7.2059334     241.0483 
  195000  0.080641553  0.069179429    -7.205914     241.0483 
  196000  0.081702322  0.063518536   -7.2059191     241.0483 
  197000  0.086600224  0.023026647   -7.2059263     241.0483 
  198000  0.088962494 0.0023515437   -7.2059388     241.0483 
  199000  0.083419783  0.051400908   -7.2059375     241.0483 
  200000  0.082477662  0.057700963   -7.2059399     241.0483 
  201000  0.087144649  0.016268926   -7.2059398     241.0483 
  202000  0.089327719 -0.00081255525   -7.2059341     241.0483 
  203000  0.083417277  0.045692972   -7.2059293     241.0483 
  204000  0.084936538  0.037158465   -7.2059276     241.0483 
  205000  0.086559146  0.023758156   -7.2059213     241.0483 
  206000  0.084609158  0.032307107   -7.2059191     241.0483 
  207000  0.088549667 0.0036114952   -7.2059173     241.0483 
  208000    0.0834449  0.049339286   -7.2059222     241.0483 
  209000  0.084532847  0.037888795    -7.205929     241.0483 
  210000  0.083119237  0.048358903   -7.2059312     241.0483 
  211000  0.084762266  0.031385644   -7.2059389     241.0483 
  212000  0.086160285   0.02859806   -7.2059357     241.0483 
  213000  0.086836974  0.021670357   -7.2059348     241.0483 
  214000   0.08641128  0.024277615   -7.2059247     241.0483 
  215000   0.08441079  0.046403032   -7.2059217     241.0483 
  216000  0.082268215  0.054795602   -7.2059139     241.0483 
  217000   0.08811771  0.012648351   -7.2059267     241.0483 
  218000  0.088643965 0.0060143548   -7.2059376     241.0483 
  219000  0.088370797 0.0093098492   -7.2059302     241.0483 
  220000  0.083665424  0.040860281   -7.2059343     241.0483 
  221000  0.082927414  0.048822829   -7.2059354     241.0483 
  222000  0.081627124  0.059509101   -7.2059288     241.0483 
  223000  0.084927822  0.036100409    -7.205941     241.0483 
  224000  0.087858518  0.015716802   -7.2059406     241.0483 
  225000   0.08629049  0.026153305   -7.2059452     241.0483 
  226000   0.07816043  0.090176112    -7.205942     241.0483 
  227000  0.088243759   0.01258418   -7.2059417     241.0483 
  228000  0.080660906  0.070837003   -7.2059471     241.0483 
  229000  0.085308459  0.031377286   -7.2059534     241.0483 
  230000  0.083990483  0.042008967   -7.2059479     241.0483 
  231000  0.083553611  0.047435295   -7.2059445     241.0483 
  232000  0.082260307  0.059025299   -7.2059417     241.0483 
  233000  0.079353684  0.077537382   -7.2059373     241.0483 
  234000  0.086968677  0.019972393   -7.2059278     241.0483 
  235000  0.084152414  0.044904184   -7.2059316     241.0483 
  236000  0.085466285  0.033882036   -7.2059362     241.0483 
  237000  0.080789337  0.066695619   -7.2059398     241.0483 
  238000  0.093751323  -0.03372601   -7.2059445     241.0483 
  239000  0.086065993  0.029805296   -7.2059428     241.0483 
  240000  0.084707069  0.038639638   -7.2059354     241.0483 
  241000  0.087904165  0.014846271   -7.2059436     241.0483 
  242000  0.086375455  0.023576466   -7.2059444     241.0483 
  243000  0.086112469  0.026494417   -7.2059487     241.0483 
  244000  0.085306358  0.035248199   -7.2059484     241.0483 
  245000  0.084507052  0.041990444   -7.2059503     241.0483 
  246000  0.083542446  0.054744828   -7.2059506     241.0483 
  247000  0.088879597 0.0064841932   -7.2059657     241.0483 
  248000  0.084408374  0.039794138   -7.2059704     241.0483 
  249000  0.085662981  0.036511759   -7.2059767     241.0483 
  250000  0.079645144  0.085483387   -7.2059792     241.0483 
  251000  0.086834437  0.025493741   -7.2059887     241.0483 
  252000  0.084907542  0.033651215   -7.2059836     241.0483 
  253000  0.082617208  0.057117506   -7.2059831     241.0483 
  254000  0.085554528  0.030829301   -7.2059756     241.0483 
  255000  0.080702949  0.071137103   -7.2059828     241.0483 
  256000  0.089698703 0.0059399418   -7.2059843     241.0483 
  257000  0.084337649  0.040228236   -7.2059777     241.0483 
  258000   0.08494999   0.03957453   -7.2059976     241.0483 
  259000  0.083205886  0.060697074    -7.206006     241.0483 
  260000  0.086767875  0.030838657   -7.2059935     241.0483 
  261000  0.083470177  0.052067387   -7.2059941     241.0483 
  262000  0.088318977 0.0092402173   -7.2059891     241.0483 
  263000  0.085386442  0.031211409    -7.205973     241.0483 
  264000  0.084685424  0.036916962   -7.2059702     241.0483 
  265000  0.087675809  0.015189561   -7.2059697     241.0483 
  266000  0.085911249  0.026316409   -7.2059629     241.0483 
  267000  0.080189258  0.075668479   -7.2059606     241.0483 
  268000  0.085358915  0.034321717   -7.2059661     241.0483 
  269000  0.086205282  0.027330812   -7.2059643     241.0483 
  270000  0.089932171 -0.0059463491   -7.2059651     241.0483 
  271000  0.083223744  0.046903546   -7.2059602     241.0483 
  272000  0.083772352  0.043236035   -7.2059568     241.0483 
  273000  0.082153399   0.05717496   -7.2059542     241.0483 
  274000  0.084025724   0.04539345   -7.2059629     241.0483 
  275000   0.07962042  0.077916631   -7.2059744     241.0483 
  276000  0.081333452   0.06044918   -7.2059717     241.0483 
  277000  0.086792086  0.015211861   -7.2059789     241.0483 
  278000  0.091252506  -0.01776222   -7.2059713     241.0483 
  279000  0.085545091  0.031193064   -7.2059592     241.0483 
  280000  0.080114369  0.072951068   -7.2059537     241.0483 
  281000  0.083231499  0.052705287   -7.2059553     241.0483 
  282000  0.080338315  0.075280409    -7.205951     241.0483 
  283000  0.085577683  0.031940867   -7.2059442     241.0483 
  284000  0.083338937  0.047651629   -7.2059553     241.0483 
  285000  0.086866024  0.018874957   -7.2059552     241.0483 
  286000  0.087331599  0.014323077   -7.2059514     241.0483 
  287000  0.080637688  0.069916868   -7.2059432     241.0483 
  288000  0.087461864  0.018259333   -7.2059498     241.0483 
  289000  0.082322507  0.057255177   -7.2059536     241.0483 
  290000  0.084934441  0.035122488   -7.2059534     241.0483 
  291000  0.085303702  0.031179841   -7.2059566     241.0483 
  292000  0.082213682  0.056019059   -7.2059491     241.0483 
  293000  0.086655138  0.020914821   -7.2059438     241.0483 
  294000  0.088367708  0.010459434   -7.2059383     241.0483 
  295000  0.086762808  0.021966525   -7.2059467     241.0483 
  296000    0.0791463  0.081885581   -7.2059439     241.0483 
  297000  0.083693545  0.045926136   -7.2059602     241.0483 
  298000  0.087899655  0.012285434   -7.2059585     241.0483 
  299000   0.08153642  0.062624943   -7.2059512     241.0483 
  300000  0.083197476  0.049935694   -7.2059499     241.0483 
  301000  0.089824953 -0.0014224782   -7.2059572     241.0483 
  302000  0.083893568  0.041638723   -7.2059574     241.0483 
  303000  0.079606606  0.078990426   -7.2059621     241.0483 
  304000   0.08659091  0.028126802   -7.2059641     241.0483 
  305000  0.082451143  0.054448164   -7.2059536     241.0483 
  306000  0.080874404  0.070407676   -7.2059483     241.0483 
  307000  0.085891529  0.034742143   -7.2059425     241.0483 
  308000  0.084137817  0.045753726   -7.2059405     241.0483 
  309000  0.082250541  0.060133376   -7.2059374     241.0483 
  310000     0.090123 -0.0057199895   -7.2059534     241.0483 
  311000  0.082209916  0.062083698   -7.2059501     241.0483 
  312000  0.083988233  0.051321077    -7.205945     241.0483 
  313000  0.092919468 -0.027160401   -7.2059393     241.0483 
  314000  0.082687837  0.061430656   -7.2059298     241.0483 
  315000  0.082060973  0.062468867   -7.2059376     241.0483 
  316000  0.082811506  0.062955285   -7.2059273     241.0483 
  317000  0.082340253  0.056506737   -7.2059352     241.0483 
  318000  0.087228693  0.016856383   -7.2059458     241.0483 
  319000  0.085336774  0.035423883   -7.2059404     241.0483 
  320000  0.083290289  0.059004565   -7.2059381     241.0483 
  321000  0.082898088     0.056371    -7.205947     241.0483 
  322000  0.089808349 0.00033713431   -7.2059578     241.0483 
  323000  0.080417682  0.076296107    -7.205949     241.0483 
  324000  0.081162762  0.069968095   -7.2059445     241.0483 
  325000  0.083949767  0.048508046   -7.2059425     241.0483 
  326000  0.090836888 -0.0050598597   -7.2059459     241.0483 
  327000    0.0819534  0.067326145   -7.2059368     241.0483 
  328000  0.085204667  0.036177599   -7.2059407     241.0483 
  329000  0.086770588  0.024047306   -7.2059404     241.0483 
  330000  0.080711166  0.072595738   -7.2059509     241.0483 
  331000   0.08269118  0.054440662   -7.2059474     241.0483 
  332000  0.086366906  0.025994149   -7.2059509     241.0483 
  333000  0.085571569  0.036165868   -7.2059549     241.0483 
  334000  0.081051534  0.069525722   -7.2059465     241.0483 
  335000  0.087926585  0.014842265   -7.2059499     241.0483 
  336000    0.0866123  0.027469241    -7.205954     241.0483 
  337000  0.082342422  0.054884589   -7.2059547     241.0483 
  338000  0.089552867 -0.0016867546   -7.2059617     241.0483 
  339000  0.086986901  0.023948934    -7.205961     241.0483 
  340000  0.084434716  0.041030615   -7.2059586     241.0483 
  341000  0.081214262  0.062757564    -7.205958     241.0483 
  342000  0.092180555 -0.025359077   -7.2059573     241.0483 
  343000  0.082975639  0.053178568   -7.2059509     241.0483 
  344000  0.082828723  0.051954798   -7.2059463     241.0483 
  345000  0.086772534  0.023646747   -7.2059543     241.0483 
  346000  0.080812977  0.073578149   -7.2059502     241.0483 
  347000   0.08628807  0.022769543   -7.2059596     241.0483 
  348000  0.085132195  0.032758583   -7.2059623     241.0483 
  349000  0.086199934  0.026338112   -7.2059597     241.0483 
  350000  0.085287378  0.031599255   -7.2059616     241.0483 
Loop time of 82.046 on 2 procs for 250000 steps with 256 atoms

Pair  time (%) = 53.7724 (65.5393)
Neigh time (%) = 0.0107808 (0.01314)
Comm  time (%) = 24.6344 (30.0251)
Outpt time (%) = 0.0102805 (0.0125301)
Other time (%) = 3.61825 (4.41002)

Nlocal:    128 ave 130 max 126 min
Histogram: 1 0 0 0 0 0 0 0 0 1
Nghost:    1109 ave 1111 max 1107 min
Histogram: 1 0 0 0 0 0 0 0 0 1
Neighs:    5504 ave 5590 max 5418 min
Histogram: 1 0 0 0 0 0 0 0 0 1

Total # of neighbors = 11008
Ave neighs/atom = 43
Neighbor list builds = 19
Dangerous builds = 0
#	run             	10000
	unfix 			1
#------SED-------------------------------------------------------------------------
label loop_fft
variable ifft loop ${num_ffts}
variable ifft loop 1

log 	log_SED_${iseed}_${ifft}.lammps
log 	log_SED_20_${ifft}.lammps
log 	log_SED_20_1.lammps
