
#------------ NVE rescale ---------------------------------------------------------------------	
	velocity 		all create ${T_run} ${seed} rot yes dist gaussian
	velocity 		all create 0.08267367665 ${seed} rot yes dist gaussian
	velocity 		all create 0.08267367665 15151515 rot yes dist gaussian
	fix 			1 all nve
	fix 			2 all temp/rescale 1 ${T_run} ${T_run} 0.01 1.0
	fix 			2 all temp/rescale 1 0.08267367665 ${T_run} 0.01 1.0
	fix 			2 all temp/rescale 1 0.08267367665 0.08267367665 0.01 1.0
	timestep		${dt}
	timestep		0.002
	thermo_style  	custom step temp press etotal vol
	thermo			1000
	run             	100000	
Memory usage per processor = 1.36469 Mbytes
Step Temp Press TotEng Volume 
       0  0.082673677  -0.71664588   -7.3350923     241.0483 
    1000  0.089543513   0.02238075    -7.205046     241.0483 
    2000  0.082254732  0.078319076   -7.2056012     241.0483 
    3000  0.080909042  0.081949857   -7.2056008     241.0483 
    4000  0.086832837  0.030692618   -7.2059051     241.0483 
    5000  0.091233835 -0.0036052692   -7.2059083     241.0483 
    6000  0.081382108   0.08134517   -7.2059058     241.0483 
    7000  0.085922227  0.033487216   -7.2059104     241.0483 
    8000  0.077492317 0.0053632334   -7.2211598     241.0483 
    9000  0.081326493  0.072199202   -7.2060175     241.0483 
   10000  0.078334652 0.0075315707   -7.2210066     241.0483 
   11000  0.079542304 -0.00075136692    -7.220999     241.0483 
   12000  0.081904518  -0.03196939   -7.2210003     241.0483 
   13000  0.084924628  0.036987047   -7.2059229     241.0483 
   14000  0.085812058  0.031603575   -7.2059238     241.0483 
   15000   0.08788313  0.010739893   -7.2059288     241.0483 
   16000  0.074667855   0.02812669    -7.220946     241.0483 
   17000  0.082861709  0.059436689   -7.2056437     241.0483 
   18000  0.086706037  0.022934511   -7.2056506     241.0483 
   19000  0.085823938  0.031093263   -7.2056477     241.0483 
   20000  0.081453209  0.067054771   -7.2056423     241.0483 
   21000  0.088740463    0.0077218   -7.2056431     241.0483 
   22000  0.086073693  0.027770697   -7.2056451     241.0483 
   23000  0.089618361 0.0018727455   -7.2056523     241.0483 
   24000  0.075416219  0.027794375   -7.2206546     241.0483 
   25000  0.077866659  0.010911511   -7.2206611     241.0483 
   26000  0.077291687  0.099254196   -7.2055498     241.0483 
   27000  0.085441199  0.038558343   -7.2055533     241.0483 
   28000  0.081838083  0.068828325   -7.2055529     241.0483 
   29000  0.083497202  0.054871469    -7.205559     241.0483 
   30000  0.087808616  0.016959216   -7.2055702     241.0483 
   31000  0.089497179 0.0039688362   -7.2055713     241.0483 
   32000  0.076791819  0.013841942   -7.2205408     241.0483 
   33000  0.085433902 -0.054380638   -7.2205321     241.0483 
   34000  0.083985776  0.041746417   -7.2053174     241.0483 
   35000  0.083708006 -0.044418185   -7.2204845     241.0483 
   36000  0.079205389 0.00062890644   -7.2204802     241.0483 
   37000  0.084004014  0.051613517   -7.2052913     241.0483 
   38000  0.083822732  0.047605615   -7.2052914     241.0483 
   39000  0.087044118  0.025679564   -7.2052952     241.0483 
   40000  0.080620736  0.072842906   -7.2052903     241.0483 
   41000  0.082153462  0.067470367   -7.2054168     241.0483 
   42000  0.082311385  0.061112291   -7.2054145     241.0483 
   43000  0.083763065  0.052379901   -7.2054158     241.0483 
   44000  0.089569846 0.0040785197   -7.2054168     241.0483 
   45000  0.090170874 -0.0046776411   -7.2054181     241.0483 
   46000  0.086523683  0.031393006   -7.2054168     241.0483 
   47000  0.080424055  0.072334046   -7.2054108     241.0483 
   48000  0.088230474   0.01521093   -7.2054229     241.0483 
   49000  0.086115753  0.025855734   -7.2054208     241.0483 
   50000  0.089674088 0.0022049804   -7.2054249     241.0483 
   51000  0.078737293  0.085265957   -7.2054169     241.0483 
   52000  0.085731336  0.033623062    -7.205425     241.0483 
   53000  0.087301347  0.019068118   -7.2053755     241.0483 
   54000  0.089424049 2.2485425e-05   -7.2053792     241.0483 
   55000  0.079422719 -0.008818581   -7.2205321     241.0483 
   56000  0.078993628 -0.010706648    -7.220524     241.0483 
   57000  0.087884549  0.010005386    -7.205361     241.0483 
   58000  0.083031331 -0.035884291   -7.2206267     241.0483 
   59000   0.07799325 0.0060895137   -7.2206201     241.0483 
   60000  0.075508859  0.023837397    -7.220621     241.0483 
   61000  0.084751995  0.038226642   -7.2056319     241.0483 
   62000  0.081723121  0.061473793   -7.2056293     241.0483 
   63000   0.08376919  0.049431681   -7.2056307     241.0483 
   64000   0.07647779  0.017332367   -7.2210093     241.0483 
   65000  0.085121014  0.038768944   -7.2058615     241.0483 
   66000   0.08193564  0.058732899   -7.2058581     241.0483 
   67000  0.087746615  0.016059922   -7.2058616     241.0483 
   68000  0.085795875 -0.061917329   -7.2210143     241.0483 
   69000  0.078733633 -0.0076958727   -7.2210113     241.0483 
   70000  0.085022705  0.038138189   -7.2060248     241.0483 
   71000  0.082918188  0.052640326   -7.2060212     241.0483 
   72000  0.073718772   0.03241776   -7.2212708     241.0483 
   73000  0.077860369 0.0083996126   -7.2210888     241.0483 
   74000  0.090300926 -0.0042276061   -7.2059637     241.0483 
   75000  0.084746571  0.037238708   -7.2060044     241.0483 
   76000  0.080233022  -0.01801629   -7.2212132     241.0483 
   77000  0.086233324  0.029213094     -7.20602     241.0483 
   78000  0.077883442 -0.0058119175    -7.221379     241.0483 
   79000  0.078329331 -0.0046806994   -7.2213827     241.0483 
   80000  0.089760717 -0.00039759342   -7.2059783     241.0483 
   81000  0.085957903  0.033177764   -7.2059775     241.0483 
   82000  0.092344323  -0.02507519   -7.2059694     241.0483 
   83000  0.084320742  0.040298631   -7.2059692     241.0483 
   84000  0.085329374  0.034915054   -7.2059736     241.0483 
   85000  0.088557956 0.0070842627   -7.2059755     241.0483 
   86000  0.074580678  0.021189534   -7.2212284     241.0483 
   87000  0.089411398  0.003633969   -7.2062585     241.0483 
   88000  0.083036045  0.055853889   -7.2062615     241.0483 
   89000  0.085697116  0.028066284   -7.2062695     241.0483 
   90000  0.081082697  0.064090405   -7.2062658     241.0483 
   91000  0.084756137  0.036741394   -7.2062682     241.0483 
   92000   0.08473026  0.036496525   -7.2062676     241.0483 
   93000  0.080250947 -0.022614301     -7.22146     241.0483 
   94000  0.082327882  0.058606584   -7.2064554     241.0483 
   95000    0.0886749 -0.082310517   -7.2214956     241.0483 
   96000  0.081960947  0.055938019   -7.2064803     241.0483 
   97000  0.082556346  0.050877459    -7.206359     241.0483 
   98000  0.090885688 -0.015241592   -7.2063642     241.0483 
   99000  0.078642004  0.083090589   -7.2063573     241.0483 
  100000  0.083304718  0.046661894   -7.2063595     241.0483 
Loop time of 33.9347 on 2 procs for 100000 steps with 256 atoms

Pair  time (%) = 21.6533 (63.8085)
Neigh time (%) = 0 (0)
Comm  time (%) = 10.545 (31.0742)
Outpt time (%) = 0.00297987 (0.00878119)
Other time (%) = 1.73356 (5.1085)

Nlocal:    128 ave 128 max 128 min
Histogram: 2 0 0 0 0 0 0 0 0 0
Nghost:    1109 ave 1109 max 1109 min
Histogram: 2 0 0 0 0 0 0 0 0 0
Neighs:    5504 ave 5504 max 5504 min
Histogram: 2 0 0 0 0 0 0 0 0 0

Total # of neighbors = 11008
Ave neighs/atom = 43
Neighbor list builds = 0
Dangerous builds = 0
#	run             	1000
	unfix 			1
	unfix 			2
#------------ NVE -----------------------------------------------------------------------------	
	fix 			1 all nve
	timestep		${dt}
	timestep		0.002
	thermo_style  	custom step temp press etotal vol
	thermo			1000
	run             	250000	
Memory usage per processor = 1.36469 Mbytes
Step Temp Press TotEng Volume 
  100000  0.083304718  0.046661894   -7.2063595     241.0483 
  101000  0.085843974  0.028095513   -7.2063642     241.0483 
  102000  0.087275217  0.012945551   -7.2063582     241.0483 
  103000   0.08394485  0.041880231   -7.2063554     241.0483 
  104000  0.084693281  0.039309758   -7.2063563     241.0483 
  105000  0.084839391  0.038414499    -7.206356     241.0483 
  106000  0.087757103  0.011312089   -7.2063568     241.0483 
  107000  0.078755302  0.082256428    -7.206347     241.0483 
  108000    0.0833688  0.049191678   -7.2063416     241.0483 
  109000  0.080992881  0.065436688   -7.2063422     241.0483 
  110000  0.083024131  0.047235586   -7.2063446     241.0483 
  111000  0.085397701  0.036561125   -7.2063459     241.0483 
  112000  0.086002769   0.02696639   -7.2063404     241.0483 
  113000   0.09207381 -0.024582442   -7.2063484     241.0483 
  114000  0.079111838  0.083289114   -7.2063399     241.0483 
  115000  0.083562195  0.048519029   -7.2063441     241.0483 
  116000   0.08462977  0.041817933   -7.2063346     241.0483 
  117000  0.079433105  0.078500035   -7.2063288     241.0483 
  118000  0.083801743  0.043727784   -7.2063345     241.0483 
  119000  0.087370795  0.013267491   -7.2063347     241.0483 
  120000  0.087123704  0.021327582   -7.2063378     241.0483 
  121000  0.086865116   0.02218998   -7.2063293     241.0483 
  122000  0.082828774  0.048667568   -7.2063412     241.0483 
  123000  0.085795155  0.028704994   -7.2063469     241.0483 
  124000  0.083934964  0.046881149   -7.2063461     241.0483 
  125000   0.07860767  0.087448619   -7.2063427     241.0483 
  126000  0.089377436 -0.003827661   -7.2063456     241.0483 
  127000  0.085616956  0.027518738   -7.2063526     241.0483 
  128000  0.085210011  0.027571766    -7.206359     241.0483 
  129000  0.085192186  0.026026058   -7.2063617     241.0483 
  130000  0.088795194 0.00080743259   -7.2063685     241.0483 
  131000  0.077707389   0.08747497   -7.2063672     241.0483 
  132000  0.081518154  0.060549316   -7.2063694     241.0483 
  133000   0.08638961  0.020409786   -7.2063681     241.0483 
  134000  0.089320062 -0.0028058076   -7.2063647     241.0483 
  135000  0.088287465  0.006391115   -7.2063548     241.0483 
  136000  0.084712329  0.034577601   -7.2063512     241.0483 
  137000  0.077308355  0.091872866   -7.2063457     241.0483 
  138000  0.088941719 0.00015806404   -7.2063596     241.0483 
  139000  0.086507724  0.017020736   -7.2063549     241.0483 
  140000  0.084787364  0.038603415   -7.2063501     241.0483 
  141000  0.091919677 -0.019908859   -7.2063448     241.0483 
  142000  0.082631463  0.055055492   -7.2063343     241.0483 
  143000  0.085938256  0.028529386    -7.206337     241.0483 
  144000  0.086354163  0.024489057   -7.2063381     241.0483 
  145000  0.078770048  0.085666919   -7.2063361     241.0483 
  146000  0.088692256 0.0058448186   -7.2063309     241.0483 
  147000  0.081979684  0.054675891   -7.2063227     241.0483 
  148000  0.081906689  0.056188723   -7.2063315     241.0483 
  149000  0.082312684  0.056950813   -7.2063342     241.0483 
  150000  0.091582902 -0.011756808   -7.2063447     241.0483 
  151000  0.080856723  0.071008105   -7.2063327     241.0483 
  152000  0.085474017  0.038271509   -7.2063442     241.0483 
  153000  0.079592245  0.074649582   -7.2063399     241.0483 
  154000   0.08350034  0.043996425   -7.2063449     241.0483 
  155000  0.088391492 0.0057953156   -7.2063487     241.0483 
  156000  0.084097955  0.041644906   -7.2063478     241.0483 
  157000   0.07911752  0.081275894   -7.2063394     241.0483 
  158000  0.082783883  0.056743128   -7.2063451     241.0483 
  159000  0.085524306  0.034212847   -7.2063434     241.0483 
  160000  0.080357475  0.070518636   -7.2063412     241.0483 
  161000  0.082756494  0.048596447    -7.206347     241.0483 
  162000  0.087032227  0.016998172   -7.2063543     241.0483 
  163000    0.0823605  0.053017994   -7.2063583     241.0483 
  164000   0.08515031  0.034294413     -7.20637     241.0483 
  165000  0.091174618 -0.016079212   -7.2063625     241.0483 
  166000  0.086557291  0.017101108   -7.2063519     241.0483 
  167000  0.086112852   0.02125815   -7.2063491     241.0483 
  168000  0.083344726  0.044820845   -7.2063409     241.0483 
  169000  0.090125289 -0.0051069432   -7.2063532     241.0483 
  170000  0.085353955  0.031068217   -7.2063538     241.0483 
  171000  0.086818987  0.020313073    -7.206353     241.0483 
  172000  0.080174755  0.074166722   -7.2063633     241.0483 
  173000  0.086192186  0.024183207   -7.2063664     241.0483 
  174000  0.086556808  0.024018287   -7.2063656     241.0483 
  175000  0.086797067  0.019872856   -7.2063637     241.0483 
  176000  0.088578682 0.0031874466   -7.2063673     241.0483 
  177000  0.083565689  0.048838518   -7.2063529     241.0483 
  178000  0.081070076  0.064745005   -7.2063513     241.0483 
  179000  0.082381507  0.051341695   -7.2063518     241.0483 
  180000  0.085388579  0.033991719    -7.206355     241.0483 
  181000   0.08547364  0.025956594   -7.2063473     241.0483 
  182000   0.08211671  0.056368183   -7.2063437     241.0483 
  183000  0.082603902  0.054104051   -7.2063384     241.0483 
  184000  0.084766132  0.037920143   -7.2063506     241.0483 
  185000  0.083916876  0.044787292   -7.2063408     241.0483 
  186000  0.087713828  0.014941625   -7.2063444     241.0483 
  187000  0.089210198 0.0043233046   -7.2063497     241.0483 
  188000   0.09206394 -0.022938708   -7.2063465     241.0483 
  189000  0.083539682   0.04675366   -7.2063423     241.0483 
  190000   0.08413941  0.041680963     -7.20635     241.0483 
  191000  0.078695884  0.087577188   -7.2063392     241.0483 
  192000  0.080688473   0.07492076   -7.2063484     241.0483 
  193000  0.089000857 0.0036685542   -7.2063615     241.0483 
  194000   0.08261345  0.052585543   -7.2063553     241.0483 
  195000  0.079355387  0.077190017   -7.2063475     241.0483 
  196000  0.085108514   0.03077487   -7.2063502     241.0483 
  197000  0.085176465  0.034066325    -7.206343     241.0483 
  198000  0.085860093  0.028116634   -7.2063518     241.0483 
  199000  0.082431595  0.056386626   -7.2063451     241.0483 
  200000  0.090147786 -0.0053783266   -7.2063525     241.0483 
  201000  0.082652737  0.053289861   -7.2063471     241.0483 
  202000  0.084423301  0.033063628   -7.2063566     241.0483 
  203000  0.089125776 -0.0028826837   -7.2063598     241.0483 
  204000  0.081307414  0.061313858    -7.206362     241.0483 
  205000  0.081963455  0.054578584   -7.2063601     241.0483 
  206000  0.083865264  0.041741737   -7.2063608     241.0483 
  207000  0.085636767  0.029600366   -7.2063599     241.0483 
  208000  0.086590871  0.023173922   -7.2063561     241.0483 
  209000  0.079325599  0.077439303   -7.2063498     241.0483 
  210000  0.085064452  0.035140471   -7.2063567     241.0483 
  211000  0.086071873  0.025075116   -7.2063627     241.0483 
  212000  0.082495704  0.057400477   -7.2063702     241.0483 
  213000  0.082602505  0.055904206   -7.2063744     241.0483 
  214000  0.089115313 -0.0014308056   -7.2063785     241.0483 
  215000  0.082489419  0.052655152   -7.2063752     241.0483 
  216000  0.085485057  0.029159887   -7.2063653     241.0483 
  217000  0.080773356  0.067947048   -7.2063611     241.0483 
  218000  0.088259747 0.0072215773    -7.206368     241.0483 
  219000  0.086448059  0.023486711   -7.2063719     241.0483 
  220000  0.082688625  0.053391149   -7.2063755     241.0483 
  221000   0.08892801 -0.0013508399   -7.2063814     241.0483 
  222000  0.084281316  0.033975785   -7.2063831     241.0483 
  223000    0.0896779 -0.0057218693   -7.2063834     241.0483 
  224000  0.081702011  0.057762717   -7.2063846     241.0483 
  225000  0.086426796  0.017162543   -7.2063827     241.0483 
  226000  0.083542822  0.042701178   -7.2063774     241.0483 
  227000  0.083022262  0.044938141   -7.2063759     241.0483 
  228000  0.084229195  0.037122216   -7.2063744     241.0483 
  229000  0.085102058  0.030960913   -7.2063916     241.0483 
  230000  0.082567184   0.04806156   -7.2063888     241.0483 
  231000  0.086566863  0.016437294   -7.2063962     241.0483 
  232000  0.084433709  0.041583881   -7.2063953     241.0483 
  233000  0.087996405   0.01108284   -7.2063979     241.0483 
  234000  0.086050941  0.023631113   -7.2064037     241.0483 
  235000   0.08537059  0.032133259    -7.206407     241.0483 
  236000  0.082842671  0.050304567   -7.2063985     241.0483 
  237000  0.086602594  0.027648747   -7.2064015     241.0483 
  238000  0.082217886  0.060583816   -7.2064073     241.0483 
  239000  0.085057004  0.036467581   -7.2064115     241.0483 
  240000  0.085755798   0.03217455   -7.2064041     241.0483 
  241000  0.084788888  0.042274842   -7.2064061     241.0483 
  242000   0.08244035  0.055921336   -7.2064084     241.0483 
  243000    0.0803199  0.074031801   -7.2064104     241.0483 
  244000  0.084723703  0.034870725     -7.20641     241.0483 
  245000  0.084175757  0.042722458   -7.2064148     241.0483 
  246000  0.089676441 -0.00026324495    -7.206421     241.0483 
  247000    0.0846277  0.043193758   -7.2064137     241.0483 
  248000  0.080519955  0.073118272   -7.2064055     241.0483 
  249000   0.08810856  0.010635128   -7.2064183     241.0483 
  250000  0.085455954  0.031928198   -7.2064097     241.0483 
  251000  0.090420638 -0.010010394   -7.2064194     241.0483 
  252000   0.08214445  0.058630933   -7.2064089     241.0483 
  253000  0.085941079  0.027401064   -7.2064106     241.0483 
  254000  0.078647555  0.086327878   -7.2064076     241.0483 
  255000  0.084574088  0.035293276   -7.2064018     241.0483 
  256000  0.088234167 0.0090797338   -7.2064031     241.0483 
  257000  0.082585826  0.049304101   -7.2064027     241.0483 
  258000   0.08230327  0.055392131   -7.2064053     241.0483 
  259000  0.084491236  0.035984586   -7.2064037     241.0483 
  260000  0.089332214 0.0080869838   -7.2064024     241.0483 
  261000  0.087606084  0.013088647   -7.2063903     241.0483 
  262000  0.085121668  0.033644988   -7.2063812     241.0483 
  263000   0.08503859  0.032487585   -7.2063811     241.0483 
  264000  0.078010956  0.089484805   -7.2063732     241.0483 
  265000  0.089675199 0.0013999436    -7.206386     241.0483 
  266000  0.086382431  0.019153098    -7.206381     241.0483 
  267000  0.086860227  0.015332049   -7.2063761     241.0483 
  268000  0.080607362  0.070313296   -7.2063737     241.0483 
  269000  0.078047714  0.091381875    -7.206372     241.0483 
  270000  0.084027157  0.040492308   -7.2063753     241.0483 
  271000  0.085282968  0.028903832    -7.206378     241.0483 
  272000  0.080429555  0.073541423   -7.2063771     241.0483 
  273000  0.083392161   0.04933745   -7.2063852     241.0483 
  274000  0.082595782  0.054619776   -7.2063862     241.0483 
  275000   0.08514534  0.033929334   -7.2063866     241.0483 
  276000  0.086397676  0.020822963   -7.2063875     241.0483 
  277000  0.084026789  0.045464841   -7.2063853     241.0483 
  278000  0.085297298  0.034674823   -7.2063888     241.0483 
  279000  0.079887803  0.077766819   -7.2063888     241.0483 
  280000  0.080698925   0.06516549   -7.2063953     241.0483 
  281000  0.087382283  0.020569855   -7.2063946     241.0483 
  282000   0.08494202  0.036076269   -7.2063982     241.0483 
  283000  0.080517549  0.070041371   -7.2063909     241.0483 
  284000  0.083311414  0.051611203   -7.2063979     241.0483 
  285000   0.08783331 0.0091576579    -7.206403     241.0483 
  286000   0.08393594  0.045023425   -7.2064094     241.0483 
  287000  0.088556257 0.0063364922   -7.2064104     241.0483 
  288000  0.081083723  0.063280546   -7.2064088     241.0483 
  289000  0.083088432  0.046723335    -7.206412     241.0483 
  290000  0.086635039  0.019668614   -7.2064172     241.0483 
  291000  0.080080374  0.068464158   -7.2064081     241.0483 
  292000   0.09211299 -0.018926365   -7.2064037     241.0483 
  293000  0.083338887  0.046422647   -7.2063954     241.0483 
  294000  0.082835711  0.050254752   -7.2063922     241.0483 
  295000  0.084607113  0.033968279   -7.2063905     241.0483 
  296000  0.088505577 0.0086134104    -7.206393     241.0483 
  297000  0.087931927 0.0076812171   -7.2063913     241.0483 
  298000  0.081260429  0.066475428   -7.2064015     241.0483 
  299000  0.084540709   0.03869184   -7.2064002     241.0483 
  300000  0.085066685  0.035817045   -7.2063935     241.0483 
  301000  0.084121857  0.040785813    -7.206386     241.0483 
  302000  0.088282879  0.011779538   -7.2063988     241.0483 
  303000  0.088999062 0.0084372788   -7.2064044     241.0483 
  304000  0.079781379  0.074722689   -7.2063964     241.0483 
  305000   0.08119923  0.070239784   -7.2063981     241.0483 
  306000  0.083492772  0.044677598   -7.2063989     241.0483 
  307000   0.09038178 -0.016434181   -7.2064035     241.0483 
  308000   0.08250631   0.05091117   -7.2064023     241.0483 
  309000   0.08660553  0.020801109    -7.206406     241.0483 
  310000  0.089007332 -0.0028709279   -7.2064096     241.0483 
  311000  0.082934835  0.048884966   -7.2064084     241.0483 
  312000  0.087281552  0.016692845   -7.2063992     241.0483 
  313000   0.08037204  0.071916132   -7.2063986     241.0483 
  314000  0.085824368  0.024887748   -7.2063995     241.0483 
  315000  0.087353035  0.013818295   -7.2064083     241.0483 
  316000  0.084250152  0.038057849   -7.2064076     241.0483 
  317000  0.083006652  0.043837839   -7.2063993     241.0483 
  318000   0.08638217  0.019745653   -7.2064025     241.0483 
  319000  0.086236233  0.023635154   -7.2064042     241.0483 
  320000  0.082202941  0.052505574    -7.206393     241.0483 
  321000  0.082119137  0.053734741   -7.2063951     241.0483 
  322000  0.089757245 -0.0019344982   -7.2064052     241.0483 
  323000  0.086415778  0.022775708   -7.2064081     241.0483 
  324000  0.088042934  0.010019235   -7.2064146     241.0483 
  325000  0.077520311  0.089340429    -7.206414     241.0483 
  326000  0.086632237  0.022744996   -7.2064216     241.0483 
  327000  0.088757033 0.0010958566    -7.206428     241.0483 
  328000  0.085818576   0.03205701   -7.2064199     241.0483 
  329000  0.087685136   0.01490951   -7.2064115     241.0483 
  330000  0.082035965  0.059813842    -7.206415     241.0483 
  331000  0.086660477  0.026665077   -7.2064154     241.0483 
  332000  0.086983442   0.01966677   -7.2064201     241.0483 
  333000  0.088415887  0.012184267   -7.2064142     241.0483 
  334000  0.089345457 0.0039979856    -7.206421     241.0483 
  335000  0.086705302  0.017959744   -7.2064199     241.0483 
  336000   0.08343077  0.040189932   -7.2064223     241.0483 
  337000  0.083628891  0.045584608    -7.206417     241.0483 
  338000  0.079981593  0.069627854   -7.2064146     241.0483 
  339000  0.086552256  0.018452207   -7.2064219     241.0483 
  340000  0.084727982  0.034349525   -7.2064187     241.0483 
  341000  0.084332901  0.033005554   -7.2064288     241.0483 
  342000   0.08519365  0.032275721   -7.2064304     241.0483 
  343000  0.087097512  0.012345601   -7.2064364     241.0483 
  344000  0.089543117 -0.0052127002     -7.20643     241.0483 
  345000  0.084603117  0.035815693   -7.2064349     241.0483 
  346000  0.085343672  0.025198213   -7.2064335     241.0483 
  347000  0.079956711  0.075556793   -7.2064257     241.0483 
  348000  0.085276673  0.032673477   -7.2064346     241.0483 
  349000   0.08919918 0.00049554489   -7.2064426     241.0483 
  350000  0.078433297  0.083631761   -7.2064402     241.0483 
Loop time of 86.0147 on 2 procs for 250000 steps with 256 atoms

Pair  time (%) = 54.6297 (63.5121)
Neigh time (%) = 0.0124773 (0.014506)
Comm  time (%) = 27.6553 (32.1518)
Outpt time (%) = 0.00828779 (0.00963531)
Other time (%) = 3.70893 (4.31197)

Nlocal:    128 ave 136 max 120 min
Histogram: 1 0 0 0 0 0 0 0 0 1
Nghost:    1109 ave 1117 max 1101 min
Histogram: 1 0 0 0 0 0 0 0 0 1
Neighs:    5504 ave 5842 max 5166 min
Histogram: 1 0 0 0 0 0 0 0 0 1

Total # of neighbors = 11008
Ave neighs/atom = 43
Neighbor list builds = 22
Dangerous builds = 0
#	run             	10000
	unfix 			1
#------SED-------------------------------------------------------------------------
label loop_fft
variable ifft loop ${num_ffts}
variable ifft loop 1

log 	log_SED_${iseed}_${ifft}.lammps
log 	log_SED_15_${ifft}.lammps
log 	log_SED_15_1.lammps
