	reset_timestep  	0
	fix 			1 all nve
	dump 			vel all custom ${w_step} dump_${iseed}_${ifft}.vel vx vy vz
	dump 			vel all custom 32 dump_${iseed}_${ifft}.vel vx vy vz
	dump 			vel all custom 32 dump_14_${ifft}.vel vx vy vz
	dump 			vel all custom 32 dump_14_1.vel vx vy vz
	dump_modify 		vel sort id
	dump 			pos all custom ${w_step} dump_${iseed}_${ifft}.pos xu yu zu
	dump 			pos all custom 32 dump_${iseed}_${ifft}.pos xu yu zu
	dump 			pos all custom 32 dump_14_${ifft}.pos xu yu zu
	dump 			pos all custom 32 dump_14_1.pos xu yu zu
	dump_modify 		pos sort id
	thermo_style 		custom step temp press vol
	thermo			5000
	timestep		${dt}
	timestep		0.002
	run			${w_total}
	run			131072
Memory usage per processor = 1.6431 Mbytes
Step Temp Press Volume 
       0  0.080883626  -0.00758972     241.0483 
    5000  0.081642617 -0.014915404     241.0483 
   10000  0.081388326 -0.018202968     241.0483 
   15000  0.082554733 -0.020035831     241.0483 
   20000  0.079127573 0.0027181535     241.0483 
   25000  0.070997493  0.075766682     241.0483 
   30000  0.080825966 -0.0039266584     241.0483 
   35000  0.080489003 -0.0082755672     241.0483 
   40000  0.080579873 -0.007306434     241.0483 
   45000  0.078183348  0.011658544     241.0483 
   50000  0.074994916  0.042273818     241.0483 
   55000  0.082889214 -0.026500452     241.0483 
   60000  0.084168432  -0.03290976     241.0483 
   65000  0.082318164 -0.020234601     241.0483 
   70000  0.083186608 -0.029697837     241.0483 
   75000   0.08092223 -0.0087399982     241.0483 
   80000  0.079678267 -0.0014420843     241.0483 
   85000  0.087742638 -0.068374606     241.0483 
   90000  0.082826121 -0.023735294     241.0483 
   95000  0.078973341 0.0092139274     241.0483 
  100000  0.083700184 -0.036774792     241.0483 
  105000  0.078022767  0.015101229     241.0483 
  110000  0.082640684 -0.019872357     241.0483 
  115000   0.07759468   0.01534768     241.0483 
  120000  0.075048866    0.0373989     241.0483 
  125000  0.077629256  0.020932441     241.0483 
  130000  0.082821976 -0.025354867     241.0483 
  131072  0.080804389 -0.014636833     241.0483 
Loop time of 65.4978 on 2 procs for 131072 steps with 256 atoms

Pair  time (%) = 28.4106 (43.3765)
Neigh time (%) = 0.0011766 (0.00179639)
Comm  time (%) = 13.5908 (20.75)
Outpt time (%) = 20.9413 (31.9725)
Other time (%) = 2.55389 (3.89919)

Nlocal:    128 ave 133 max 123 min
Histogram: 1 0 0 0 0 0 0 0 0 1
Nghost:    1109 ave 1114 max 1104 min
Histogram: 1 0 0 0 0 0 0 0 0 1
Neighs:    5504 ave 5711 max 5297 min
Histogram: 1 0 0 0 0 0 0 0 0 1

Total # of neighbors = 11008
Ave neighs/atom = 43
Neighbor list builds = 2
Dangerous builds = 0
	unfix			1
	undump			vel
	undump			pos

next ifft
jump lmp.in.sed.14 loop_fft

