	reset_timestep  	0
	fix 			1 all nve
	dump 			vel all custom ${w_step} dump_${iseed}_${ifft}.vel vx vy vz
	dump 			vel all custom 32 dump_${iseed}_${ifft}.vel vx vy vz
	dump 			vel all custom 32 dump_17_${ifft}.vel vx vy vz
	dump 			vel all custom 32 dump_17_1.vel vx vy vz
	dump_modify 		vel sort id
	dump 			pos all custom ${w_step} dump_${iseed}_${ifft}.pos xu yu zu
	dump 			pos all custom 32 dump_${iseed}_${ifft}.pos xu yu zu
	dump 			pos all custom 32 dump_17_${ifft}.pos xu yu zu
	dump 			pos all custom 32 dump_17_1.pos xu yu zu
	dump_modify 		pos sort id
	thermo_style 		custom step temp press vol
	thermo			5000
	timestep		${dt}
	timestep		0.002
	run			${w_total}
	run			131072
Memory usage per processor = 1.64305 Mbytes
Step Temp Press Volume 
       0  0.087843896 -0.044073233     241.0483 
    5000  0.082356773 0.0030319153     241.0483 
   10000  0.086027655  -0.02494398     241.0483 
   15000  0.079194384  0.032405626     241.0483 
   20000  0.079369228  0.031084437     241.0483 
   25000  0.083312968 -0.00093159416     241.0483 
   30000  0.084384746 -0.011165194     241.0483 
   35000  0.081120709  0.011772701     241.0483 
   40000  0.080609584  0.018382905     241.0483 
   45000  0.080679436  0.019061227     241.0483 
   50000  0.082423149 0.0064838279     241.0483 
   55000   0.08138773 0.0093802787     241.0483 
   60000  0.080895823  0.014969652     241.0483 
   65000  0.077814585  0.046383417     241.0483 
   70000  0.086607284 -0.027027153     241.0483 
   75000  0.084122639 -0.0054685404     241.0483 
   80000  0.082948089 0.0023207788     241.0483 
   85000  0.080172628  0.022911494     241.0483 
   90000  0.084864207 -0.016460337     241.0483 
   95000   0.08247262 0.0096212252     241.0483 
  100000  0.077718509  0.046279005     241.0483 
  105000  0.083639733 -0.0046343333     241.0483 
  110000  0.083775472 -0.0083396804     241.0483 
  115000  0.079594157  0.028492898     241.0483 
  120000   0.07708049  0.051114709     241.0483 
  125000  0.085657372 -0.023885334     241.0483 
  130000   0.08413438  -0.01021572     241.0483 
  131072  0.084222645 -0.003850478     241.0483 
Loop time of 52.5857 on 2 procs for 131072 steps with 256 atoms

Pair  time (%) = 28.6382 (54.4601)
Neigh time (%) = 0.00621176 (0.0118126)
Comm  time (%) = 13.3594 (25.405)
Outpt time (%) = 8.09908 (15.4017)
Other time (%) = 2.48277 (4.72139)

Nlocal:    128 ave 129 max 127 min
Histogram: 1 0 0 0 0 0 0 0 0 1
Nghost:    1109 ave 1110 max 1108 min
Histogram: 1 0 0 0 0 0 0 0 0 1
Neighs:    5504 ave 5549 max 5459 min
Histogram: 1 0 0 0 0 0 0 0 0 1

Total # of neighbors = 11008
Ave neighs/atom = 43
Neighbor list builds = 11
Dangerous builds = 0
	unfix			1
	undump			vel
	undump			pos

next ifft
jump lmp.in.sed.17 loop_fft

