	reset_timestep  	0
	fix 			1 all nve
	dump 			vel all custom ${w_step} dump_${iseed}_${ifft}.vel vx vy vz
	dump 			vel all custom 32 dump_${iseed}_${ifft}.vel vx vy vz
	dump 			vel all custom 32 dump_9_${ifft}.vel vx vy vz
	dump 			vel all custom 32 dump_9_1.vel vx vy vz
	dump_modify 		vel sort id
	dump 			pos all custom ${w_step} dump_${iseed}_${ifft}.pos xu yu zu
	dump 			pos all custom 32 dump_${iseed}_${ifft}.pos xu yu zu
	dump 			pos all custom 32 dump_9_${ifft}.pos xu yu zu
	dump 			pos all custom 32 dump_9_1.pos xu yu zu
	dump_modify 		pos sort id
	thermo_style 		custom step temp press vol
	thermo			5000
	timestep		${dt}
	timestep		0.002
	run			${w_total}
	run			131072
Memory usage per processor = 1.64328 Mbytes
Step Temp Press Volume 
       0   0.08126573 -0.028831556     241.0483 
    5000  0.076493392  0.011066616     241.0483 
   10000   0.07800225 -0.00017004551     241.0483 
   15000  0.079404827 -0.011847911     241.0483 
   20000  0.079012644  -0.00955054     241.0483 
   25000  0.080889693 -0.027025467     241.0483 
   30000  0.078914179 -0.0039572247     241.0483 
   35000  0.084552513 -0.056007783     241.0483 
   40000  0.080379239 -0.024098013     241.0483 
   45000  0.080126588 -0.017310124     241.0483 
   50000  0.077497737 0.0016037765     241.0483 
   55000  0.076552691   0.01236467     241.0483 
   60000  0.083894331 -0.046598573     241.0483 
   65000  0.082334668 -0.037942961     241.0483 
   70000   0.07907037 -0.012739023     241.0483 
   75000  0.078331864 -0.0025872001     241.0483 
   80000  0.087656453 -0.084117908     241.0483 
   85000  0.077874347 -0.0033868939     241.0483 
   90000  0.083757404 -0.047984493     241.0483 
   95000  0.076147276 0.0099644846     241.0483 
  100000  0.078371532 -0.0073985671     241.0483 
  105000  0.078442761 -0.0069509962     241.0483 
  110000  0.079804672 -0.014247219     241.0483 
  115000   0.07428066  0.027386807     241.0483 
  120000  0.077125855   0.00935745     241.0483 
  125000  0.079427573 -0.012611872     241.0483 
  130000  0.081015834 -0.024314352     241.0483 
  131072  0.080413959 -0.022789262     241.0483 
Loop time of 57.3656 on 2 procs for 131072 steps with 256 atoms

Pair  time (%) = 28.8028 (50.2092)
Neigh time (%) = 0.00116444 (0.00202985)
Comm  time (%) = 13.8749 (24.1868)
Outpt time (%) = 8.01305 (13.9684)
Other time (%) = 6.67364 (11.6335)

Nlocal:    128 ave 131 max 125 min
Histogram: 1 0 0 0 0 0 0 0 0 1
Nghost:    1109 ave 1112 max 1106 min
Histogram: 1 0 0 0 0 0 0 0 0 1
Neighs:    5504 ave 5628 max 5380 min
Histogram: 1 0 0 0 0 0 0 0 0 1

Total # of neighbors = 11008
Ave neighs/atom = 43
Neighbor list builds = 2
Dangerous builds = 0
	unfix			1
	undump			vel
	undump			pos

next ifft
jump lmp.in.sed.9 loop_fft

