
#------------ NVE rescale ---------------------------------------------------------------------	
	velocity 		all create ${T_run} ${seed} rot yes dist gaussian
	velocity 		all create 0.08267367665 ${seed} rot yes dist gaussian
	velocity 		all create 0.08267367665 24242424 rot yes dist gaussian
	fix 			1 all nve
	fix 			2 all temp/rescale 1 ${T_run} ${T_run} 0.01 1.0
	fix 			2 all temp/rescale 1 0.08267367665 ${T_run} 0.01 1.0
	fix 			2 all temp/rescale 1 0.08267367665 0.08267367665 0.01 1.0
	timestep		${dt}
	timestep		0.002
	thermo_style  	custom step temp press etotal vol
	thermo			1000
	run             	100000	
Memory usage per processor = 1.36469 Mbytes
Step Temp Press TotEng Volume 
       0  0.082673677  -0.71664588   -7.3350923     241.0483 
    1000  0.085931898  0.050814968   -7.2055259     241.0483 
    2000  0.080436912 0.0028621656   -7.2206589     241.0483 
    3000  0.086061878  0.040230971   -7.2054745     241.0483 
    4000  0.087462696 -0.063940811   -7.2207033     241.0483 
    5000  0.081918416  0.072037895   -7.2055959     241.0483 
    6000  0.077842948   0.01057679   -7.2209158     241.0483 
    7000  0.086588026    0.0299361   -7.2056464     241.0483 
    8000  0.085966847  0.028945596   -7.2056509     241.0483 
    9000  0.085065339  0.042070808   -7.2056578     241.0483 
   10000  0.088422674  0.015485885   -7.2057849     241.0483 
   11000  0.086076166  0.033905693   -7.2057839     241.0483 
   12000  0.088737394  0.012247644   -7.2057884     241.0483 
   13000  0.079023477  0.090695134   -7.2057772     241.0483 
   14000  0.087764937  0.018565557   -7.2057775     241.0483 
   15000  0.084318524  0.047399212   -7.2057727     241.0483 
   16000   0.08166882  0.066451609   -7.2057689     241.0483 
   17000  0.088261712   0.01612429   -7.2057682     241.0483 
   18000  0.080578936   0.07797065   -7.2057614     241.0483 
   19000  0.083052882  0.056030479   -7.2057791     241.0483 
   20000  0.086701117  0.030763569     -7.20579     241.0483 
   21000  0.085872124  0.026587853   -7.2057854     241.0483 
   22000  0.088868047 0.0035181095   -7.2057861     241.0483 
   23000  0.082512718 -0.035770363   -7.2209549     241.0483 
   24000  0.080367676 -0.013352734   -7.2209495     241.0483 
   25000  0.075699245  0.015849214   -7.2209522     241.0483 
   26000  0.081471748 -0.024339386   -7.2209633     241.0483 
   27000  0.084832665 -0.053190292   -7.2209624     241.0483 
   28000  0.083754632   0.04457519   -7.2057863     241.0483 
   29000  0.085719807    0.0317157   -7.2057988     241.0483 
   30000  0.083143829  0.049923626   -7.2058076     241.0483 
   31000  0.088055985  0.014313574    -7.205618     241.0483 
   32000   0.08505789  0.035109781   -7.2056162     241.0483 
   33000  0.087349935  0.018727359    -7.205626     241.0483 
   34000  0.078158095 0.0034752086   -7.2207638     241.0483 
   35000  0.080995144 -0.021094709   -7.2207613     241.0483 
   36000  0.079857239 -0.010609313   -7.2207617     241.0483 
   37000  0.082560529 -0.034711378   -7.2207662     241.0483 
   38000  0.079435099 -0.014201084   -7.2207681     241.0483 
   39000  0.082621122 -0.037756437    -7.220764     241.0483 
   40000  0.080086786 -0.012779603   -7.2207577     241.0483 
   41000  0.080890343  -0.01696135   -7.2207577     241.0483 
   42000  0.078803825 -0.0075365126   -7.2207531     241.0483 
   43000  0.079597677 -0.0062660929   -7.2207531     241.0483 
   44000  0.086147913  0.030994314    -7.205558     241.0483 
   45000  0.081919512 -0.026415659   -7.2205252     241.0483 
   46000  0.086325723  0.029148143   -7.2055767     241.0483 
   47000  0.079422216  0.086109766   -7.2055713     241.0483 
   48000  0.081845655  0.066093275   -7.2059064     241.0483 
   49000  0.086318618  0.029021846   -7.2059032     241.0483 
   50000  0.089544775 -0.0020818313    -7.205903     241.0483 
   51000  0.078426302 -0.0071666912   -7.2211552     241.0483 
   52000  0.077408958 0.0064063174   -7.2211611     241.0483 
   53000  0.082049876 -0.033372279   -7.2211678     241.0483 
   54000  0.077325257 0.0084206579   -7.2211669     241.0483 
   55000  0.082310357 -0.033271072   -7.2211682     241.0483 
   56000  0.075754213  0.019940193    -7.221163     241.0483 
   57000  0.084530011 -0.053125421   -7.2211697     241.0483 
   58000  0.080269524 -0.022426386   -7.2211744     241.0483 
   59000  0.086811595  0.019919423   -7.2062275     241.0483 
   60000  0.083608135  0.045763761   -7.2062293     241.0483 
   61000  0.083586829  0.043407998     -7.20623     241.0483 
   62000  0.080618608  0.065723245   -7.2062279     241.0483 
   63000  0.082788367 -0.035625105   -7.2212157     241.0483 
   64000  0.079528445 -0.010412099   -7.2212137     241.0483 
   65000  0.078033991 0.00086233643   -7.2212056     241.0483 
   66000  0.073989679   0.03548034   -7.2205951     241.0483 
   67000  0.083396883 -0.039283768   -7.2206597     241.0483 
   68000  0.086459952  0.024558179   -7.2054709     241.0483 
   69000  0.077799545 0.0035151192   -7.2207004     241.0483 
   70000  0.082085801 -0.029497361   -7.2206982     241.0483 
   71000  0.082218621  0.060121611   -7.2055928     241.0483 
   72000  0.081715499  0.064323114   -7.2055953     241.0483 
   73000  0.080158263  -0.01612123   -7.2205936     241.0483 
   74000  0.082136554 -0.028129803    -7.220594     241.0483 
   75000  0.079512917 -0.0046539681   -7.2205874     241.0483 
   76000  0.083067087  0.052079383   -7.2054916     241.0483 
   77000  0.085526974   0.03433435   -7.2054893     241.0483 
   78000  0.083202438  0.055507373   -7.2056474     241.0483 
   79000  0.078603903 0.00052057047   -7.2206507     241.0483 
   80000  0.081070165 -0.022395665   -7.2206537     241.0483 
   81000  0.082626805 -0.029926613   -7.2206533     241.0483 
   82000  0.077019055  0.016939488   -7.2206523     241.0483 
   83000   0.08098474 -0.019133166   -7.2206438     241.0483 
   84000   0.09137762 -0.0084777425   -7.2054337     241.0483 
   85000  0.080206843 -0.012326777   -7.2205615     241.0483 
   86000  0.080991267   -0.0129744   -7.2205647     241.0483 
   87000  0.083781723 -0.039969607   -7.2205665     241.0483 
   88000  0.085168403  0.037754931   -7.2051951     241.0483 
   89000  0.083367671 -0.032376111   -7.2205499     241.0483 
   90000  0.083735982  -0.04352054   -7.2205498     241.0483 
   91000    0.0791832 -0.004779778   -7.2205454     241.0483 
   92000  0.082385313  0.061332445   -7.2054453     241.0483 
   93000  0.084646648  0.040591048   -7.2054449     241.0483 
   94000  0.086565551  0.026907508    -7.205443     241.0483 
   95000  0.083627804 -0.036882344   -7.2204368     241.0483 
   96000  0.076546467  0.020203701   -7.2204318     241.0483 
   97000  0.084282264 -0.040972358   -7.2204231     241.0483 
   98000  0.085731651  0.039805811   -7.2050967     241.0483 
   99000  0.082506846 -0.027385334   -7.2200614     241.0483 
  100000  0.074934373  0.040082576   -7.2200674     241.0483 
Loop time of 39.3908 on 2 procs for 100000 steps with 256 atoms

Pair  time (%) = 21.437 (54.4213)
Neigh time (%) = 0 (0)
Comm  time (%) = 16.1598 (41.0243)
Outpt time (%) = 0.00464296 (0.0117869)
Other time (%) = 1.78939 (4.54266)

Nlocal:    128 ave 128 max 128 min
Histogram: 2 0 0 0 0 0 0 0 0 0
Nghost:    1109 ave 1109 max 1109 min
Histogram: 2 0 0 0 0 0 0 0 0 0
Neighs:    5504 ave 5504 max 5504 min
Histogram: 2 0 0 0 0 0 0 0 0 0

Total # of neighbors = 11008
Ave neighs/atom = 43
Neighbor list builds = 0
Dangerous builds = 0
#	run             	1000
	unfix 			1
	unfix 			2
#------------ NVE -----------------------------------------------------------------------------	
	fix 			1 all nve
	timestep		${dt}
	timestep		0.002
	thermo_style  	custom step temp press etotal vol
	thermo			1000
	run             	250000	
Memory usage per processor = 1.36469 Mbytes
Step Temp Press TotEng Volume 
  100000  0.074934373  0.040082576   -7.2200674     241.0483 
  101000  0.081400896 -0.015637126   -7.2200593     241.0483 
  102000  0.084993064 -0.048229493   -7.2200598     241.0483 
  103000   0.07971849 -0.0064928742   -7.2200522     241.0483 
  104000  0.080997202 -0.010236498   -7.2200552     241.0483 
  105000  0.074261834  0.034595779   -7.2200487     241.0483 
  106000  0.081650535 -0.026857929   -7.2200591     241.0483 
  107000  0.078519266   0.01157785   -7.2200543     241.0483 
  108000  0.084927738 -0.048508924   -7.2200625     241.0483 
  109000  0.079099992 -0.0055165437   -7.2200554     241.0483 
  110000  0.081730607  -0.02260914   -7.2200654     241.0483 
  111000  0.081120554 -0.021275273   -7.2200683     241.0483 
  112000  0.082907348 -0.033470246   -7.2200755     241.0483 
  113000  0.079217301 -0.0049020231   -7.2200791     241.0483 
  114000  0.081338066 -0.015198457   -7.2200865     241.0483 
  115000  0.080432324 -0.011907573   -7.2200907     241.0483 
  116000  0.081833451 -0.024552197   -7.2200841     241.0483 
  117000  0.080299094 -0.017442048   -7.2200787     241.0483 
  118000  0.082358923   -0.0276084   -7.2200845     241.0483 
  119000  0.082919425 -0.035552888   -7.2200867     241.0483 
  120000  0.085102876  -0.04861484   -7.2200896     241.0483 
  121000  0.084470646 -0.047185821   -7.2200887     241.0483 
  122000  0.077014522  0.014153523   -7.2200919     241.0483 
  123000  0.082045711 -0.026682951   -7.2200949     241.0483 
  124000  0.082320488 -0.028637623   -7.2200873     241.0483 
  125000  0.085472812 -0.051737914   -7.2200964     241.0483 
  126000  0.080108283 -0.0082792927   -7.2200962     241.0483 
  127000  0.080040984 -0.0077745923   -7.2201027     241.0483 
  128000  0.078876794 0.0038681616   -7.2200958     241.0483 
  129000  0.075317676  0.032028683   -7.2200954     241.0483 
  130000  0.080284718 -0.0074762462   -7.2200901     241.0483 
  131000  0.083610602 -0.032975421   -7.2200899     241.0483 
  132000  0.079962785 -0.0018719687   -7.2200902     241.0483 
  133000  0.077958218 0.0025265877   -7.2200853     241.0483 
  134000  0.083096434 -0.038061378   -7.2200876     241.0483 
  135000  0.078986456 -0.0014247882   -7.2200881     241.0483 
  136000  0.083808584 -0.040621043   -7.2200837     241.0483 
  137000   0.07647969  0.015673142   -7.2200799     241.0483 
  138000  0.079606127 -0.0056298989   -7.2200844     241.0483 
  139000  0.080714245 -0.012802265   -7.2200887     241.0483 
  140000   0.07944523 -0.0085007641    -7.220084     241.0483 
  141000  0.083573404 -0.039203759   -7.2200857     241.0483 
  142000  0.079503006 -0.006158297   -7.2200843     241.0483 
  143000  0.079817026 -0.0093301732   -7.2200813     241.0483 
  144000  0.080865965 -0.012556598   -7.2200805     241.0483 
  145000  0.083800949 -0.040236381   -7.2200805     241.0483 
  146000  0.079400484 -0.0084908864   -7.2200847     241.0483 
  147000  0.080252348 -0.012792368     -7.22008     241.0483 
  148000  0.081825529 -0.023782952   -7.2200814     241.0483 
  149000  0.079315644 -0.0050284807    -7.220079     241.0483 
  150000  0.080831798 -0.018367027   -7.2200806     241.0483 
  151000  0.079187087 0.0014385526   -7.2200813     241.0483 
  152000  0.077923148 0.0078810019   -7.2200849     241.0483 
  153000  0.083894668 -0.039530585    -7.220079     241.0483 
  154000  0.085055009 -0.047922831   -7.2200647     241.0483 
  155000  0.078082243 0.0081252273   -7.2200748     241.0483 
  156000  0.078380812 0.0082234361   -7.2200832     241.0483 
  157000  0.082926335 -0.028337273   -7.2200898     241.0483 
  158000  0.077129916  0.016162134    -7.220097     241.0483 
  159000  0.084618404 -0.040259293   -7.2200998     241.0483 
  160000  0.078988281 -0.0018057611   -7.2200994     241.0483 
  161000   0.08381888 -0.040878686    -7.220103     241.0483 
  162000  0.080288865 -0.0075768413   -7.2200999     241.0483 
  163000   0.08359168 -0.030615971   -7.2200958     241.0483 
  164000  0.076437398  0.022063718   -7.2200922     241.0483 
  165000  0.083456426 -0.036204674   -7.2200942     241.0483 
  166000  0.078562175 0.0043431124   -7.2200909     241.0483 
  167000  0.082784349  -0.02840528   -7.2200958     241.0483 
  168000  0.084129466 -0.040161535   -7.2201024     241.0483 
  169000  0.082544612 -0.029135992   -7.2200975     241.0483 
  170000   0.07804087 0.0054371936   -7.2200927     241.0483 
  171000  0.080350977 -0.0094523459   -7.2200913     241.0483 
  172000  0.080042614 -0.0069114827   -7.2201011     241.0483 
  173000  0.084966842 -0.038989443   -7.2201068     241.0483 
  174000  0.081517525 -0.020758361    -7.220121     241.0483 
  175000  0.082144834  -0.03017385   -7.2201254     241.0483 
  176000   0.08676151 -0.062420454   -7.2201288     241.0483 
  177000  0.073255181  0.049695389   -7.2201275     241.0483 
  178000  0.076299056  0.028898602   -7.2201259     241.0483 
  179000  0.081955525 -0.015696069   -7.2201357     241.0483 
  180000  0.083968758 -0.041401943    -7.220148     241.0483 
  181000  0.077532796  0.012101214   -7.2201417     241.0483 
  182000  0.083232784 -0.036015074   -7.2201459     241.0483 
  183000  0.081749442 -0.022069986   -7.2201475     241.0483 
  184000  0.077801139 0.0097308264   -7.2201485     241.0483 
  185000  0.082332565 -0.024195917   -7.2201438     241.0483 
  186000  0.077581871   0.01430204   -7.2201471     241.0483 
  187000  0.082353406 -0.025933488   -7.2201485     241.0483 
  188000  0.076296371  0.023057894   -7.2201416     241.0483 
  189000  0.083045598 -0.038665303   -7.2201411     241.0483 
  190000  0.078448713 0.00011421109   -7.2201456     241.0483 
  191000  0.081471545 -0.013440411   -7.2201469     241.0483 
  192000  0.077175647  0.012026107   -7.2201425     241.0483 
  193000   0.07997349 -0.0089579704   -7.2201394     241.0483 
  194000  0.080197454 -0.012093565   -7.2201393     241.0483 
  195000  0.077421055  0.012482248   -7.2201418     241.0483 
  196000  0.085242683 -0.047479356    -7.220147     241.0483 
  197000  0.080315149 -0.0070296333   -7.2201419     241.0483 
  198000  0.075158166  0.031012139   -7.2201418     241.0483 
  199000  0.085246078 -0.054340208   -7.2201494     241.0483 
  200000  0.081818716 -0.024197315   -7.2201404     241.0483 
  201000  0.079685629 -0.011202377   -7.2201435     241.0483 
  202000  0.078762091 -0.0051621234    -7.220144     241.0483 
  203000  0.079134657 -0.0042463636   -7.2201432     241.0483 
  204000  0.082241426 -0.027601672   -7.2201352     241.0483 
  205000  0.080795799 -0.014086909   -7.2201332     241.0483 
  206000  0.076461789  0.012602685   -7.2201339     241.0483 
  207000  0.085911435 -0.061048448   -7.2201372     241.0483 
  208000  0.079417061 -0.0078505535   -7.2201282     241.0483 
  209000  0.080205207 -0.012364949    -7.220117     241.0483 
  210000  0.075444529   0.02311594   -7.2201126     241.0483 
  211000  0.079913539 -0.010512088   -7.2201085     241.0483 
  212000  0.078009854 0.0066975342   -7.2201073     241.0483 
  213000   0.07985447 -0.0087187401   -7.2201036     241.0483 
  214000  0.082998631 -0.038263957   -7.2201063     241.0483 
  215000  0.076451592  0.015563447   -7.2201005     241.0483 
  216000  0.081080945  -0.01939778   -7.2201008     241.0483 
  217000  0.083939757 -0.041434465    -7.220094     241.0483 
  218000  0.078732551 -0.0011158608   -7.2200869     241.0483 
  219000  0.082978768 -0.030204913   -7.2200882     241.0483 
  220000   0.08112209  -0.01973823   -7.2200906     241.0483 
  221000  0.082920876  -0.03860459   -7.2200926     241.0483 
  222000  0.077676775 0.0072346018    -7.220093     241.0483 
  223000  0.080426268 -0.014867797   -7.2200965     241.0483 
  224000  0.081027981  -0.01921721   -7.2200892     241.0483 
  225000  0.076118213  0.024479095   -7.2200852     241.0483 
  226000  0.079871346 -0.0062112453   -7.2200887     241.0483 
  227000  0.081934508 -0.027031371   -7.2200891     241.0483 
  228000  0.080610864 -0.014093516   -7.2200831     241.0483 
  229000  0.081453603 -0.023602588   -7.2200868     241.0483 
  230000  0.074736535  0.028049475   -7.2200763     241.0483 
  231000  0.076911121 0.0087611743   -7.2200811     241.0483 
  232000  0.079454007 -0.0061114355   -7.2200843     241.0483 
  233000   0.08003499 -0.0092531727   -7.2200956     241.0483 
  234000  0.076463363  0.018159402   -7.2200945     241.0483 
  235000  0.082858306 -0.032611328   -7.2200925     241.0483 
  236000   0.08209409 -0.027546958   -7.2200893     241.0483 
  237000  0.078927591  0.002453164   -7.2200858     241.0483 
  238000  0.080112583 -0.0074454089   -7.2200931     241.0483 
  239000  0.085563606 -0.052761346   -7.2200903     241.0483 
  240000  0.077871955 0.0099943546   -7.2200868     241.0483 
  241000  0.080171312 -0.0066849619   -7.2200837     241.0483 
  242000  0.078407861 0.0024727227   -7.2200858     241.0483 
  243000  0.077371936  0.011327427   -7.2200808     241.0483 
  244000  0.076966474  0.015617509    -7.220075     241.0483 
  245000  0.086348266 -0.059101933   -7.2200715     241.0483 
  246000  0.080730819 -0.020023319   -7.2200697     241.0483 
  247000  0.080920117 -0.015781414   -7.2200681     241.0483 
  248000  0.084236058 -0.046584381   -7.2200718     241.0483 
  249000  0.081845337 -0.022289767   -7.2200708     241.0483 
  250000  0.079972005 -0.0096280179   -7.2200729     241.0483 
  251000  0.080084318 -0.010574538   -7.2200612     241.0483 
  252000  0.082421691 -0.032735411   -7.2200552     241.0483 
  253000  0.080709291 -0.016534705   -7.2200537     241.0483 
  254000  0.082475296 -0.026048431   -7.2200541     241.0483 
  255000  0.075107436  0.032905851   -7.2200525     241.0483 
  256000  0.079191975 -0.00081236058    -7.220053     241.0483 
  257000  0.081015933 -0.016746418   -7.2200439     241.0483 
  258000  0.078676199 -0.0026379216   -7.2200442     241.0483 
  259000  0.078042164 0.0058760134   -7.2200348     241.0483 
  260000  0.078702751 -0.0011811246   -7.2200445     241.0483 
  261000  0.081496692  -0.02160143   -7.2200439     241.0483 
  262000  0.076996709  0.018607715   -7.2200333     241.0483 
  263000  0.076184862  0.021425559   -7.2200361     241.0483 
  264000  0.083607087 -0.037409963   -7.2200376     241.0483 
  265000  0.076102191  0.017649946   -7.2200237     241.0483 
  266000  0.080283189   -0.0135056   -7.2200294     241.0483 
  267000  0.076156682  0.025388379   -7.2200302     241.0483 
  268000  0.077075779  0.013976622   -7.2200245     241.0483 
  269000  0.083542993 -0.040056229   -7.2200289     241.0483 
  270000  0.079643573 -0.0060997072   -7.2200258     241.0483 
  271000  0.077764978  0.015220198   -7.2200217     241.0483 
  272000  0.081499607 -0.024213251   -7.2200285     241.0483 
  273000  0.086766965 -0.063108569   -7.2200286     241.0483 
  274000  0.075401398  0.031963946   -7.2200263     241.0483 
  275000  0.081057464 -0.014697753   -7.2200385     241.0483 
  276000  0.080802176 -0.012766246   -7.2200481     241.0483 
  277000     0.081277 -0.011929751   -7.2200518     241.0483 
  278000  0.079068018 0.0015266915   -7.2200432     241.0483 
  279000  0.081503983 -0.016775535   -7.2200443     241.0483 
  280000  0.079223487 0.00026306814   -7.2200448     241.0483 
  281000  0.076423497  0.015910562   -7.2200478     241.0483 
  282000  0.079421876 -0.0091706356   -7.2200469     241.0483 
  283000  0.082288763 -0.027448555   -7.2200451     241.0483 
  284000  0.079588928 -0.00094612202   -7.2200459     241.0483 
  285000   0.07479623  0.034262371   -7.2200355     241.0483 
  286000  0.082092749 -0.021383388   -7.2200412     241.0483 
  287000  0.079232435  0.001960198   -7.2200427     241.0483 
  288000  0.080237221 -0.0071431908   -7.2200402     241.0483 
  289000  0.081167875 -0.019253527   -7.2200473     241.0483 
  290000  0.076734753  0.019807423   -7.2200346     241.0483 
  291000  0.079392631 -0.003490137   -7.2200349     241.0483 
  292000  0.083406714 -0.034667603   -7.2200275     241.0483 
  293000  0.081498024   -0.0139513   -7.2200231     241.0483 
  294000  0.076646428  0.015904976   -7.2200163     241.0483 
  295000  0.081236365 -0.023362328   -7.2200247     241.0483 
  296000  0.081179906 -0.020352014   -7.2200255     241.0483 
  297000  0.077423976  0.010723006    -7.220025     241.0483 
  298000  0.081953663 -0.019745025   -7.2200286     241.0483 
  299000  0.074587302  0.035233606   -7.2200173     241.0483 
  300000  0.082195095  -0.02782555   -7.2200288     241.0483 
  301000  0.083469429 -0.036837816   -7.2200262     241.0483 
  302000   0.07805893 0.0036878408   -7.2200223     241.0483 
  303000  0.078833531 0.00038125728   -7.2200173     241.0483 
  304000  0.078163567 0.0088459684   -7.2200237     241.0483 
  305000  0.084551138 -0.044596273   -7.2200261     241.0483 
  306000  0.076914711  0.013078059   -7.2200274     241.0483 
  307000  0.082592253 -0.026225136   -7.2200273     241.0483 
  308000  0.080112691 -0.0089942234   -7.2200267     241.0483 
  309000  0.082702521  -0.03432457   -7.2200269     241.0483 
  310000   0.08055096 -0.016929325    -7.220024     241.0483 
  311000  0.081985124 -0.026739381   -7.2200255     241.0483 
  312000  0.083504299 -0.033962505   -7.2200298     241.0483 
  313000  0.080895294 -0.013336022   -7.2200351     241.0483 
  314000  0.078662897 0.0019295781   -7.2200289     241.0483 
  315000  0.081070403 -0.020566609   -7.2200291     241.0483 
  316000  0.082530501 -0.028294425   -7.2200303     241.0483 
  317000  0.082684699 -0.030816206   -7.2200376     241.0483 
  318000  0.085263476 -0.051391755   -7.2200341     241.0483 
  319000   0.07933116 -0.0046296928   -7.2200363     241.0483 
  320000  0.077388204  0.012844401   -7.2200409     241.0483 
  321000  0.080108527 -0.010338267   -7.2200411     241.0483 
  322000  0.080056319 -0.0057722158   -7.2200417     241.0483 
  323000  0.077548921  0.010287178   -7.2200344     241.0483 
  324000  0.078227537 0.0073437304   -7.2200297     241.0483 
  325000  0.082784037 -0.028395286   -7.2200357     241.0483 
  326000  0.081641621 -0.022891774   -7.2200369     241.0483 
  327000  0.079897547 -0.0082933089   -7.2200408     241.0483 
  328000  0.077069081   0.01721353   -7.2200277     241.0483 
  329000  0.082767733  -0.03028062   -7.2200299     241.0483 
  330000  0.081983337  -0.02687554   -7.2200303     241.0483 
  331000  0.081511061 -0.022447131   -7.2200415     241.0483 
  332000  0.080042398 -0.0061653148   -7.2200472     241.0483 
  333000  0.078380911 0.0044252593   -7.2200524     241.0483 
  334000  0.082754849 -0.029438977   -7.2200513     241.0483 
  335000  0.078389991 0.0028292997   -7.2200483     241.0483 
  336000  0.076993806  0.011551304   -7.2200472     241.0483 
  337000   0.07489639   0.03119958   -7.2200427     241.0483 
  338000  0.082566008 -0.027994426   -7.2200397     241.0483 
  339000   0.07991762 -0.0096561661   -7.2200382     241.0483 
  340000  0.079243568 -0.0064052544   -7.2200399     241.0483 
  341000  0.079500075 -0.0083550342   -7.2200423     241.0483 
  342000    0.0848423 -0.047389534   -7.2200505     241.0483 
  343000  0.077839312  0.003619174   -7.2200536     241.0483 
  344000  0.079264151 -0.0020018523   -7.2200523     241.0483 
  345000  0.075356389  0.027815544   -7.2200468     241.0483 
  346000  0.082756676 -0.030581482   -7.2200477     241.0483 
  347000  0.076737281  0.016522082   -7.2200509     241.0483 
  348000  0.078155994 0.0051669857   -7.2200524     241.0483 
  349000  0.075635859  0.024940555    -7.220053     241.0483 
  350000   0.08145002 -0.021971677   -7.2200578     241.0483 
Loop time of 98.9193 on 2 procs for 250000 steps with 256 atoms

Pair  time (%) = 53.709 (54.2958)
Neigh time (%) = 0.00280547 (0.00283612)
Comm  time (%) = 41.3838 (41.8359)
Outpt time (%) = 0.0126557 (0.012794)
Other time (%) = 3.81103 (3.85267)

Nlocal:    128 ave 132 max 124 min
Histogram: 1 0 0 0 0 0 0 0 0 1
Nghost:    1109 ave 1113 max 1105 min
Histogram: 1 0 0 0 0 0 0 0 0 1
Neighs:    5504.5 ave 5674 max 5335 min
Histogram: 1 0 0 0 0 0 0 0 0 1

Total # of neighbors = 11009
Ave neighs/atom = 43.0039
Neighbor list builds = 5
Dangerous builds = 0
#	run             	10000
	unfix 			1
#------SED-------------------------------------------------------------------------
label loop_fft
variable ifft loop ${num_ffts}
variable ifft loop 1

log 	log_SED_${iseed}_${ifft}.lammps
log 	log_SED_24_${ifft}.lammps
log 	log_SED_24_1.lammps
