	reset_timestep  	0
	fix 			1 all nve
	dump 			vel all custom ${w_step} dump_${iseed}_${ifft}.vel vx vy vz
	dump 			vel all custom 32 dump_${iseed}_${ifft}.vel vx vy vz
	dump 			vel all custom 32 dump_22_${ifft}.vel vx vy vz
	dump 			vel all custom 32 dump_22_1.vel vx vy vz
	dump_modify 		vel sort id
	dump 			pos all custom ${w_step} dump_${iseed}_${ifft}.pos xu yu zu
	dump 			pos all custom 32 dump_${iseed}_${ifft}.pos xu yu zu
	dump 			pos all custom 32 dump_22_${ifft}.pos xu yu zu
	dump 			pos all custom 32 dump_22_1.pos xu yu zu
	dump_modify 		pos sort id
	thermo_style 		custom step temp press vol
	thermo			5000
	timestep		${dt}
	timestep		0.002
	run			${w_total}
	run			131072
Memory usage per processor = 1.64301 Mbytes
Step Temp Press Volume 
       0  0.085687744  0.014828826     241.0483 
    5000  0.078227369  0.065617999     241.0483 
   10000  0.088568931 -0.013464361     241.0483 
   15000  0.079383428  0.059972177     241.0483 
   20000  0.087805234 -0.0089286588     241.0483 
   25000  0.080176239  0.052945997     241.0483 
   30000  0.084802994  0.025009274     241.0483 
   35000  0.084792411  0.019441419     241.0483 
   40000  0.080404596  0.052778011     241.0483 
   45000  0.089872084 -0.019541527     241.0483 
   50000  0.081818311  0.040269817     241.0483 
   55000   0.08065989  0.047251992     241.0483 
   60000  0.082559435  0.037828518     241.0483 
   65000  0.082763067  0.033439496     241.0483 
   70000  0.082005036  0.036355392     241.0483 
   75000  0.082197864  0.033291623     241.0483 
   80000   0.08617002    0.0114498     241.0483 
   85000  0.088459565 -0.011208246     241.0483 
   90000  0.083017775  0.031493237     241.0483 
   95000  0.084150578  0.018241476     241.0483 
  100000  0.091484027 -0.032383498     241.0483 
  105000  0.086807652 0.00099608661     241.0483 
  110000  0.081449257  0.044057675     241.0483 
  115000  0.088811371 -0.015486122     241.0483 
  120000  0.084995994   0.01519353     241.0483 
  125000  0.087839381 -0.0058132376     241.0483 
  130000  0.084341653     0.023397     241.0483 
  131072  0.087554566 -0.0062885395     241.0483 
Loop time of 71.3298 on 2 procs for 131072 steps with 256 atoms

Pair  time (%) = 28.4847 (39.9338)
Neigh time (%) = 0.00402546 (0.00564345)
Comm  time (%) = 14.8248 (20.7834)
Outpt time (%) = 25.4071 (35.6192)
Other time (%) = 2.60924 (3.658)

Nlocal:    128 ave 132 max 124 min
Histogram: 1 0 0 0 0 0 0 0 0 1
Nghost:    1109 ave 1113 max 1105 min
Histogram: 1 0 0 0 0 0 0 0 0 1
Neighs:    5504.5 ave 5682 max 5327 min
Histogram: 1 0 0 0 0 0 0 0 0 1

Total # of neighbors = 11009
Ave neighs/atom = 43.0039
Neighbor list builds = 7
Dangerous builds = 0
	unfix			1
	undump			vel
	undump			pos

next ifft
jump lmp.in.sed.22 loop_fft

