	reset_timestep  	0
	fix 			1 all nve
	dump 			vel all custom ${w_step} dump_${iseed}_${ifft}.vel vx vy vz
	dump 			vel all custom 32 dump_${iseed}_${ifft}.vel vx vy vz
	dump 			vel all custom 32 dump_23_${ifft}.vel vx vy vz
	dump 			vel all custom 32 dump_23_1.vel vx vy vz
	dump_modify 		vel sort id
	dump 			pos all custom ${w_step} dump_${iseed}_${ifft}.pos xu yu zu
	dump 			pos all custom 32 dump_${iseed}_${ifft}.pos xu yu zu
	dump 			pos all custom 32 dump_23_${ifft}.pos xu yu zu
	dump 			pos all custom 32 dump_23_1.pos xu yu zu
	dump_modify 		pos sort id
	thermo_style 		custom step temp press vol
	thermo			5000
	timestep		${dt}
	timestep		0.002
	run			${w_total}
	run			131072
Memory usage per processor = 1.64298 Mbytes
Step Temp Press Volume 
       0  0.081163466  0.073454548     241.0483 
    5000  0.078994623  0.086801428     241.0483 
   10000  0.096015889 -0.046946298     241.0483 
   15000  0.088928448 0.0093641898     241.0483 
   20000   0.08015463  0.073973525     241.0483 
   25000    0.0827519  0.056577311     241.0483 
   30000  0.082675498  0.055295317     241.0483 
   35000  0.087006845  0.024847273     241.0483 
   40000  0.086480952  0.025096624     241.0483 
   45000  0.086157183  0.031428643     241.0483 
   50000  0.089138705 0.0041697814     241.0483 
   55000  0.088087479  0.012360591     241.0483 
   60000  0.087739431  0.017515333     241.0483 
   65000  0.083655637  0.046828218     241.0483 
   70000  0.086270767  0.027116285     241.0483 
   75000  0.086078533  0.027532432     241.0483 
   80000  0.091155369 -0.014500651     241.0483 
   85000   0.08084624  0.066183048     241.0483 
   90000  0.087156301  0.018802301     241.0483 
   95000  0.079704486  0.083159919     241.0483 
  100000    0.0881252  0.022750295     241.0483 
  105000  0.083142083  0.051781803     241.0483 
  110000   0.08403665  0.046316052     241.0483 
  115000  0.078722082  0.089557808     241.0483 
  120000  0.082548551  0.054646031     241.0483 
  125000  0.083632014  0.046503753     241.0483 
  130000  0.080838642   0.07113983     241.0483 
  131072   0.08252981  0.058868737     241.0483 
Loop time of 66.3435 on 2 procs for 131072 steps with 256 atoms

Pair  time (%) = 29.191 (43.9998)
Neigh time (%) = 0.00283432 (0.00427219)
Comm  time (%) = 20.2717 (30.5557)
Outpt time (%) = 14.3888 (21.6884)
Other time (%) = 2.48918 (3.75195)

Nlocal:    128 ave 134 max 122 min
Histogram: 1 0 0 0 0 0 0 0 0 1
Nghost:    1109 ave 1115 max 1103 min
Histogram: 1 0 0 0 0 0 0 0 0 1
Neighs:    5504 ave 5769 max 5239 min
Histogram: 1 0 0 0 0 0 0 0 0 1

Total # of neighbors = 11008
Ave neighs/atom = 43
Neighbor list builds = 5
Dangerous builds = 0
	unfix			1
	undump			vel
	undump			pos

next ifft
jump lmp.in.sed.23 loop_fft

