
#------------ NVE rescale ---------------------------------------------------------------------	
	velocity 		all create ${T_run} ${seed} rot yes dist gaussian
	velocity 		all create 0.08267367665 ${seed} rot yes dist gaussian
	velocity 		all create 0.08267367665 13131313 rot yes dist gaussian
	fix 			1 all nve
	fix 			2 all temp/rescale 1 ${T_run} ${T_run} 0.01 1.0
	fix 			2 all temp/rescale 1 0.08267367665 ${T_run} 0.01 1.0
	fix 			2 all temp/rescale 1 0.08267367665 0.08267367665 0.01 1.0
	timestep		${dt}
	timestep		0.002
	thermo_style  	custom step temp press etotal vol
	thermo			1000
	run             	100000	
Memory usage per processor = 1.36469 Mbytes
Step Temp Press TotEng Volume 
       0  0.082673677  -0.71664588   -7.3350923     241.0483 
    1000  0.086790034  0.025993621   -7.2078853     241.0483 
    2000  0.080507656  0.072382732    -7.208159     241.0483 
    3000  0.084287664  0.039741841   -7.2081645     241.0483 
    4000  0.086375747  0.012736741   -7.2081624     241.0483 
    5000   0.08550823  0.024793159   -7.2081546     241.0483 
    6000  0.085907833  0.021228867   -7.2081609     241.0483 
    7000  0.088925888 -0.0079485091   -7.2081682     241.0483 
    8000  0.085015063  0.025869882   -7.2081641     241.0483 
    9000  0.085400525  0.023810445    -7.208161     241.0483 
   10000  0.078730524  0.074581158   -7.2081567     241.0483 
   11000   0.08465882  0.027565309   -7.2081641     241.0483 
   12000  0.081327155   0.05088506   -7.2081674     241.0483 
   13000   0.08695396  0.011059553   -7.2081614     241.0483 
   14000  0.085054757  0.023244209   -7.2081642     241.0483 
   15000  0.079734863   0.07023282   -7.2081646     241.0483 
   16000   0.08663281  0.011338694   -7.2081729     241.0483 
   17000  0.082028011  0.044412918   -7.2081684     241.0483 
   18000  0.085346849  0.024137402   -7.2081663     241.0483 
   19000  0.081574294  0.050890042   -7.2081754     241.0483 
   20000  0.083220325  0.045204804   -7.2081731     241.0483 
   21000  0.081273838  0.055620755    -7.208164     241.0483 
   22000  0.083027366  0.042047397   -7.2081549     241.0483 
   23000  0.085276122  0.022316095   -7.2081568     241.0483 
   24000  0.086632349 0.0083893762   -7.2081556     241.0483 
   25000  0.082122359 -0.042247723   -7.2230747     241.0483 
   26000  0.075443902   0.01690059   -7.2231316     241.0483 
   27000  0.077214432 0.0028334388   -7.2231358     241.0483 
   28000  0.084019374  0.031973004   -7.2081651     241.0483 
   29000  0.082844572  0.039184409   -7.2081607     241.0483 
   30000  0.085653665  0.020394496   -7.2081627     241.0483 
   31000  0.087216788   0.01063401   -7.2081553     241.0483 
   32000  0.082996352  0.046488878   -7.2081522     241.0483 
   33000  0.089368634 -0.002065277   -7.2081483     241.0483 
   34000   0.07838322 -0.014058859   -7.2233475     241.0483 
   35000   0.07581848 4.7173171e-05    -7.223347     241.0483 
   36000   0.08617037     0.014339   -7.2078248     241.0483 
   37000  0.084200586  0.037050369   -7.2078235     241.0483 
   38000  0.078572145  0.072464121   -7.2078221     241.0483 
   39000  0.086627951  0.019334032    -7.207879     241.0483 
   40000   0.08682687  0.016183048   -7.2078743     241.0483 
   41000   0.08159022  0.061465366   -7.2078659     241.0483 
   42000  0.084237233  0.032880522   -7.2078687     241.0483 
   43000  0.084884869  0.028607393   -7.2078681     241.0483 
   44000  0.079767823 -0.019016437   -7.2228736     241.0483 
   45000  0.082827327 -0.043241313   -7.2228738     241.0483 
   46000  0.077210861 -0.0037816688   -7.2228115     241.0483 
   47000  0.085356807  0.027225562   -7.2073998     241.0483 
   48000  0.083813929    0.0399747   -7.2074026     241.0483 
   49000  0.080502086  0.061581228    -7.207656     241.0483 
   50000  0.081495797   -0.0368937    -7.222921     241.0483 
   51000  0.079282967  -0.02165696   -7.2229169     241.0483 
   52000  0.081643435 -0.038671898   -7.2229178     241.0483 
   53000  0.086465001  0.016245323   -7.2078577     241.0483 
   54000  0.078891311  0.074933313   -7.2078544     241.0483 
   55000  0.082923318  0.037925099   -7.2078615     241.0483 
   56000   0.08479693  0.029560522   -7.2078626     241.0483 
   57000  0.087282357 0.0082060013   -7.2078635     241.0483 
   58000  0.077086536 -0.0050996657   -7.2228428     241.0483 
   59000  0.081620096  -0.04135107   -7.2228439     241.0483 
   60000  0.080271676 -0.029251344   -7.2228439     241.0483 
   61000  0.082663608  0.041047736   -7.2078404     241.0483 
   62000  0.088446712 -0.0038572757   -7.2078399     241.0483 
   63000  0.083182278  0.038828778   -7.2078362     241.0483 
   64000  0.086312875  0.013143645   -7.2078303     241.0483 
   65000  0.081474048  0.052544822   -7.2078291     241.0483 
   66000  0.085816185  0.020249559   -7.2078302     241.0483 
   67000  0.088233226 -0.0044964647   -7.2078332     241.0483 
   68000  0.077714763 -0.010669092   -7.2231789     241.0483 
   69000  0.081221154  0.058096977   -7.2081593     241.0483 
   70000  0.078193979  0.077741593    -7.208154     241.0483 
   71000  0.083187815  0.038560438   -7.2081621     241.0483 
   72000  0.077848843 -0.0093909927   -7.2231346     241.0483 
   73000   0.08436657  0.031556467   -7.2080716     241.0483 
   74000  0.086683182 0.0061482036   -7.2080724     241.0483 
   75000  0.079389921  0.066014356   -7.2080747     241.0483 
   76000  0.085858998  0.014011343    -7.208075     241.0483 
   77000  0.080608719  0.056680977    -7.207952     241.0483 
   78000  0.075658016 0.0089616733   -7.2230315     241.0483 
   79000  0.082599147   0.04430154   -7.2080454     241.0483 
   80000  0.084744866  0.029331913   -7.2080437     241.0483 
   81000  0.084599325  0.024370504    -7.208043     241.0483 
   82000  0.084318755  0.034139748   -7.2080452     241.0483 
   83000  0.082143197  0.049386954   -7.2080482     241.0483 
   84000  0.086161907  0.015313964   -7.2080631     241.0483 
   85000  0.089050063 -0.0069613635    -7.208064     241.0483 
   86000  0.079678374 -0.021028516   -7.2230382     241.0483 
   87000  0.085025446  0.018854084   -7.2080357     241.0483 
   88000  0.079772805  0.064531867    -7.208028     241.0483 
   89000  0.079884517 -0.031770716   -7.2233277     241.0483 
   90000  0.082839876 -0.053171513   -7.2233368     241.0483 
   91000   0.08012369  0.062922105   -7.2083073     241.0483 
   92000  0.083828919  0.030312959   -7.2083018     241.0483 
   93000  0.084850431  0.022617376   -7.2083014     241.0483 
   94000  0.083573468  0.034869338   -7.2082899     241.0483 
   95000  0.083224695  0.035316545   -7.2082949     241.0483 
   96000  0.089250505 -0.014622422   -7.2083021     241.0483 
   97000  0.081265613  0.047630646   -7.2082955     241.0483 
   98000  0.080949152 -0.039723339   -7.2234337     241.0483 
   99000  0.086989975 0.0061995494   -7.2084737     241.0483 
  100000  0.080969301  0.058390461   -7.2084725     241.0483 
Loop time of 35.0861 on 2 procs for 100000 steps with 256 atoms

Pair  time (%) = 21.9106 (62.4481)
Neigh time (%) = 0 (0)
Comm  time (%) = 11.254 (32.0754)
Outpt time (%) = 0.00786507 (0.0224165)
Other time (%) = 1.91365 (5.45415)

Nlocal:    128 ave 128 max 128 min
Histogram: 2 0 0 0 0 0 0 0 0 0
Nghost:    1109 ave 1109 max 1109 min
Histogram: 2 0 0 0 0 0 0 0 0 0
Neighs:    5504 ave 5504 max 5504 min
Histogram: 2 0 0 0 0 0 0 0 0 0

Total # of neighbors = 11008
Ave neighs/atom = 43
Neighbor list builds = 0
Dangerous builds = 0
#	run             	1000
	unfix 			1
	unfix 			2
#------------ NVE -----------------------------------------------------------------------------	
	fix 			1 all nve
	timestep		${dt}
	timestep		0.002
	thermo_style  	custom step temp press etotal vol
	thermo			1000
	run             	250000	
Memory usage per processor = 1.36469 Mbytes
Step Temp Press TotEng Volume 
  100000  0.080969301  0.058390461   -7.2084725     241.0483 
  101000  0.086175313  0.015781485   -7.2084619     241.0483 
  102000   0.07984647  0.059545509   -7.2084622     241.0483 
  103000   0.08463907  0.022016991   -7.2084556     241.0483 
  104000  0.086446621 0.0072986489   -7.2084597     241.0483 
  105000  0.087827949 0.00034489185   -7.2084608     241.0483 
  106000  0.080453215   0.05575017   -7.2084573     241.0483 
  107000  0.085968187 0.0081380284   -7.2084646     241.0483 
  108000  0.086354239 0.0075877851   -7.2084656     241.0483 
  109000  0.082419269  0.044716422   -7.2084671     241.0483 
  110000  0.086914084 0.0081867373   -7.2084734     241.0483 
  111000  0.087397992 0.0013927879    -7.208471     241.0483 
  112000  0.082062183  0.040663485   -7.2084734     241.0483 
  113000  0.084182681  0.031348367   -7.2084639     241.0483 
  114000  0.083122442  0.038164607   -7.2084671     241.0483 
  115000  0.083032823  0.042062394   -7.2084654     241.0483 
  116000  0.089276194 -0.012332817   -7.2084705     241.0483 
  117000  0.083344582   0.03502038   -7.2084616     241.0483 
  118000  0.082871551  0.041978203   -7.2084581     241.0483 
  119000  0.082240207  0.047360005   -7.2084517     241.0483 
  120000  0.088988063 -0.0085092468   -7.2084553     241.0483 
  121000  0.086674603   0.01075342   -7.2084529     241.0483 
  122000  0.084837709  0.022981262   -7.2084462     241.0483 
  123000  0.084640409   0.02614863    -7.208454     241.0483 
  124000  0.089494214 -0.016390763   -7.2084468     241.0483 
  125000  0.087208262 0.0063724285   -7.2084422     241.0483 
  126000  0.081411826  0.051793376   -7.2084461     241.0483 
  127000  0.087475305 -0.00012453701   -7.2084507     241.0483 
  128000  0.081790823  0.043786146   -7.2084402     241.0483 
  129000  0.079285937  0.067583104   -7.2084463     241.0483 
  130000  0.088064239 -0.0052915292   -7.2084541     241.0483 
  131000  0.087325128 -0.00048424125   -7.2084584     241.0483 
  132000  0.083516703  0.030715225   -7.2084536     241.0483 
  133000  0.084358298  0.028501052   -7.2084467     241.0483 
  134000   0.09000689 -0.012678065   -7.2084473     241.0483 
  135000   0.07973464  0.068030943   -7.2084484     241.0483 
  136000  0.085075108  0.029203702   -7.2084553     241.0483 
  137000  0.086758312 0.0072523632     -7.20845     241.0483 
  138000  0.076465438  0.090089339   -7.2084488     241.0483 
  139000  0.084763001  0.025483962   -7.2084514     241.0483 
  140000  0.084486137  0.022560675   -7.2084547     241.0483 
  141000  0.085304469  0.020907873   -7.2084525     241.0483 
  142000   0.08530476  0.020515021   -7.2084542     241.0483 
  143000  0.087487964  0.006296917   -7.2084583     241.0483 
  144000  0.081418466  0.052992646   -7.2084536     241.0483 
  145000  0.084757749  0.025867431   -7.2084721     241.0483 
  146000  0.084981554   0.02484468   -7.2084691     241.0483 
  147000  0.081527565  0.051166633   -7.2084677     241.0483 
  148000  0.085727813  0.012505819   -7.2084574     241.0483 
  149000  0.085414554  0.014575693    -7.208445     241.0483 
  150000  0.083452294  0.038400414   -7.2084479     241.0483 
  151000  0.078979352  0.073445039   -7.2084435     241.0483 
  152000  0.079874022  0.062864554   -7.2084417     241.0483 
  153000  0.081253196  0.054133312    -7.208439     241.0483 
  154000  0.086999132 0.0026583986    -7.208445     241.0483 
  155000  0.089508929 -0.0098437088   -7.2084363     241.0483 
  156000  0.082321341  0.038722996   -7.2084348     241.0483 
  157000  0.082521628  0.040194586    -7.208436     241.0483 
  158000  0.084693248  0.022363761   -7.2084345     241.0483 
  159000  0.084554134  0.025861623   -7.2084377     241.0483 
  160000  0.074579556   0.10985015    -7.208429     241.0483 
  161000  0.082301155  0.040475308   -7.2084297     241.0483 
  162000  0.082455317  0.040332938   -7.2084272     241.0483 
  163000  0.090059996 -0.014194209   -7.2084385     241.0483 
  164000  0.081702422  0.044168083    -7.208442     241.0483 
  165000  0.084373096  0.020632421    -7.208442     241.0483 
  166000  0.080329881   0.05599867   -7.2084387     241.0483 
  167000  0.080667933  0.053914323   -7.2084331     241.0483 
  168000  0.090324978 -0.027546137   -7.2084382     241.0483 
  169000  0.084946403  0.018815004    -7.208435     241.0483 
  170000  0.083417091  0.032348246   -7.2084296     241.0483 
  171000  0.084827105   0.02635116   -7.2084344     241.0483 
  172000  0.086803232 0.0085786902   -7.2084322     241.0483 
  173000  0.081773653  0.051330322   -7.2084183     241.0483 
  174000    0.0808709   0.05281728   -7.2084205     241.0483 
  175000  0.081381741  0.051451743   -7.2084195     241.0483 
  176000  0.081085225  0.053236336   -7.2084121     241.0483 
  177000  0.086968471  0.008854798   -7.2084164     241.0483 
  178000   0.08247108  0.037480296   -7.2083998     241.0483 
  179000  0.085648002  0.015384078   -7.2084025     241.0483 
  180000  0.084604519  0.024984368   -7.2083947     241.0483 
  181000  0.082672125  0.042808095   -7.2083965     241.0483 
  182000  0.083510963  0.038594097   -7.2084007     241.0483 
  183000  0.086369633  0.014056267   -7.2084048     241.0483 
  184000  0.090575301 -0.026444081   -7.2084012     241.0483 
  185000  0.081729467  0.047764769   -7.2083958     241.0483 
  186000  0.079940433  0.065241209   -7.2083924     241.0483 
  187000  0.084214332  0.030613676   -7.2083873     241.0483 
  188000  0.086537409  0.011746798   -7.2083897     241.0483 
  189000  0.079308852  0.071549687   -7.2083991     241.0483 
  190000  0.085833315   0.01438464   -7.2084116     241.0483 
  191000  0.086553368  0.012744942   -7.2084113     241.0483 
  192000  0.082232487  0.042687999   -7.2084071     241.0483 
  193000  0.083584229  0.036744818   -7.2084067     241.0483 
  194000  0.080397283  0.064419203   -7.2084107     241.0483 
  195000   0.08439233   0.02672083   -7.2084153     241.0483 
  196000  0.082992556  0.035122658   -7.2084152     241.0483 
  197000  0.081833715  0.040847557   -7.2084123     241.0483 
  198000  0.083310859  0.037648166   -7.2084137     241.0483 
  199000  0.081539603  0.053967367   -7.2084117     241.0483 
  200000  0.089633379 -0.010111905   -7.2084014     241.0483 
  201000  0.073871707   0.11219789   -7.2083966     241.0483 
  202000  0.080043191  0.063631107   -7.2083905     241.0483 
  203000  0.090186056 -0.019405799   -7.2083966     241.0483 
  204000  0.087409451 -0.0033889841   -7.2083906     241.0483 
  205000  0.081587464  0.052587593    -7.208397     241.0483 
  206000  0.082296056  0.044129817      -7.2084     241.0483 
  207000  0.086573541  0.012913725   -7.2083914     241.0483 
  208000  0.082088612  0.045084389   -7.2083898     241.0483 
  209000  0.086428231  0.011085093   -7.2083908     241.0483 
  210000  0.082804627  0.041397976    -7.208393     241.0483 
  211000  0.081882306  0.041568608   -7.2083904     241.0483 
  212000  0.087036172 0.0022623122   -7.2083914     241.0483 
  213000  0.084075893   0.02770285   -7.2083881     241.0483 
  214000  0.080850799   0.05205323   -7.2083868     241.0483 
  215000  0.083566058  0.030882328    -7.208377     241.0483 
  216000  0.090567579 -0.021041319   -7.2083837     241.0483 
  217000  0.081016361  0.057447363   -7.2083793     241.0483 
  218000  0.083070141  0.038127794   -7.2083847     241.0483 
  219000  0.085213002  0.019507713   -7.2083725     241.0483 
  220000  0.083274236  0.034991783   -7.2083719     241.0483 
  221000  0.089649946 -0.012887772   -7.2083768     241.0483 
  222000  0.081778638  0.045209227   -7.2083773     241.0483 
  223000  0.085098737  0.021788463   -7.2083773     241.0483 
  224000  0.083101031  0.039430103   -7.2083822     241.0483 
  225000  0.084253931  0.029626613    -7.208379     241.0483 
  226000  0.084682446  0.031081278   -7.2083736     241.0483 
  227000  0.080551626  0.060343034   -7.2083724     241.0483 
  228000  0.086958145  0.004918708   -7.2083829     241.0483 
  229000  0.083747087  0.033527995   -7.2083804     241.0483 
  230000  0.083663739  0.033569677   -7.2083808     241.0483 
  231000  0.086756365 0.0098381868   -7.2083867     241.0483 
  232000  0.085748108  0.016854694   -7.2083847     241.0483 
  233000  0.086186498  0.014321207   -7.2083929     241.0483 
  234000  0.081443515   0.05019584   -7.2083874     241.0483 
  235000  0.079345331  0.066729465   -7.2083821     241.0483 
  236000  0.084967762  0.025567297   -7.2083934     241.0483 
  237000  0.082088735  0.041840013   -7.2083847     241.0483 
  238000  0.086436703 0.0095869149   -7.2083946     241.0483 
  239000  0.083312607  0.036103476    -7.208398     241.0483 
  240000  0.081646972  0.052147804   -7.2083839     241.0483 
  241000  0.084291696  0.034793078   -7.2083802     241.0483 
  242000  0.082527948  0.048054895    -7.208377     241.0483 
  243000  0.089831326 -0.019767963   -7.2083821     241.0483 
  244000  0.087681259 -0.0035114822   -7.2083822     241.0483 
  245000  0.088418209 -0.0021898123   -7.2083839     241.0483 
  246000  0.080999677  0.052066422   -7.2083797     241.0483 
  247000  0.077642758  0.080372359   -7.2083761     241.0483 
  248000  0.089849358 -0.017144343   -7.2083835     241.0483 
  249000  0.082359029  0.040703023    -7.208376     241.0483 
  250000  0.083407716  0.032985267   -7.2083679     241.0483 
  251000  0.082513407  0.044205501   -7.2083673     241.0483 
  252000  0.086314402  0.017935101   -7.2083697     241.0483 
  253000  0.088857123 -0.0080823564   -7.2083655     241.0483 
  254000  0.082640953  0.048577636    -7.208369     241.0483 
  255000  0.080057047  0.064147884   -7.2083728     241.0483 
  256000  0.078972083  0.070461335   -7.2083719     241.0483 
  257000  0.086151411  0.013672148   -7.2083732     241.0483 
  258000  0.083853831  0.036283303   -7.2083718     241.0483 
  259000  0.082375925   0.04680838   -7.2083812     241.0483 
  260000   0.08523158    0.0259875   -7.2083801     241.0483 
  261000  0.083183811  0.043741489   -7.2083756     241.0483 
  262000  0.078125625  0.078493905   -7.2083702     241.0483 
  263000  0.084187255  0.028404608   -7.2083732     241.0483 
  264000  0.088040172 -0.0016749826   -7.2083745     241.0483 
  265000  0.080194712  0.062488503   -7.2083695     241.0483 
  266000  0.090666326 -0.021101192   -7.2083689     241.0483 
  267000  0.085287793  0.028495827    -7.208366     241.0483 
  268000  0.082883982  0.036537415   -7.2083765     241.0483 
  269000  0.082076187  0.044817822   -7.2083799     241.0483 
  270000   0.08767792 0.0027344974   -7.2083966     241.0483 
  271000  0.082249736  0.044033169   -7.2084007     241.0483 
  272000  0.088535337 -0.0073721781      -7.2084     241.0483 
  273000  0.088435675 -0.0049178439   -7.2083984     241.0483 
  274000  0.083472103   0.03271441   -7.2083978     241.0483 
  275000  0.085902174  0.019379244   -7.2084008     241.0483 
  276000  0.085059251  0.027733957   -7.2084011     241.0483 
  277000  0.079762682  0.063432624   -7.2084058     241.0483 
  278000  0.081597747  0.045929468   -7.2084067     241.0483 
  279000  0.087807557 0.00047929182    -7.208412     241.0483 
  280000  0.087973623 -0.00074988601   -7.2084129     241.0483 
  281000  0.082992177  0.039052883   -7.2084159     241.0483 
  282000  0.082491572    0.0410959   -7.2084104     241.0483 
  283000  0.084498513  0.024608259   -7.2084116     241.0483 
  284000  0.081230977  0.050381912   -7.2084182     241.0483 
  285000  0.082889091  0.036908218   -7.2084135     241.0483 
  286000  0.087715269 0.0018574304   -7.2084167     241.0483 
  287000  0.084202243  0.027510871   -7.2083993     241.0483 
  288000  0.087466468  0.007570926   -7.2084055     241.0483 
  289000  0.080412572  0.062119659   -7.2084057     241.0483 
  290000  0.087858425 0.0032696149   -7.2084088     241.0483 
  291000  0.082070013   0.04699987   -7.2084103     241.0483 
  292000  0.081436154  0.045456891   -7.2084042     241.0483 
  293000  0.083635075  0.034319323   -7.2083987     241.0483 
  294000  0.082476841  0.035009843   -7.2083965     241.0483 
  295000  0.087885408 -0.00089410616   -7.2084013     241.0483 
  296000  0.084586832   0.03152433   -7.2084022     241.0483 
  297000  0.080290959  0.060877148   -7.2083972     241.0483 
  298000  0.083186573  0.038884245   -7.2084039     241.0483 
  299000  0.080442113  0.058495191   -7.2083975     241.0483 
  300000  0.088929702 -0.0093259014    -7.208398     241.0483 
  301000  0.083442848  0.034792326   -7.2084068     241.0483 
  302000  0.086218278  0.013341861    -7.208412     241.0483 
  303000  0.086898816 0.0060767796   -7.2084101     241.0483 
  304000  0.081270943  0.057419964   -7.2084163     241.0483 
  305000  0.086603287  0.010185813   -7.2084168     241.0483 
  306000  0.085757021  0.014066273    -7.208413     241.0483 
  307000  0.086218584  0.010993308   -7.2084115     241.0483 
  308000  0.084102675  0.029834779   -7.2084019     241.0483 
  309000  0.080706317  0.054149209    -7.208405     241.0483 
  310000  0.083076667  0.035291192   -7.2084052     241.0483 
  311000  0.083108242  0.035727443   -7.2084048     241.0483 
  312000  0.083644849  0.036983512   -7.2084058     241.0483 
  313000  0.081037095  0.051262636   -7.2084068     241.0483 
  314000  0.083113083  0.036126957   -7.2084047     241.0483 
  315000  0.089340091 -0.011202131   -7.2084172     241.0483 
  316000  0.086290143 0.0095240669   -7.2084119     241.0483 
  317000  0.084231817  0.027732399   -7.2084032     241.0483 
  318000  0.082204092  0.047013009   -7.2084047     241.0483 
  319000  0.083214829  0.032336834   -7.2084089     241.0483 
  320000  0.082210965  0.044698892   -7.2084057     241.0483 
  321000  0.086501462  0.011645357   -7.2084057     241.0483 
  322000  0.092989026 -0.038861545   -7.2084121     241.0483 
  323000  0.081361445   0.05412298   -7.2084054     241.0483 
  324000  0.082499866  0.041809483   -7.2084009     241.0483 
  325000  0.084916561  0.025528923   -7.2084045     241.0483 
  326000  0.084571903  0.028625672   -7.2084067     241.0483 
  327000   0.08340066  0.036662006   -7.2084058     241.0483 
  328000   0.08589806  0.012220847   -7.2084014     241.0483 
  329000  0.083801617  0.027209124   -7.2084037     241.0483 
  330000  0.081029545  0.057341939   -7.2084128     241.0483 
  331000  0.088206792 -0.0050420709    -7.208423     241.0483 
  332000  0.082578405  0.035457103   -7.2084212     241.0483 
  333000  0.082020473  0.046032468   -7.2084165     241.0483 
  334000  0.084388414  0.030381876    -7.208416     241.0483 
  335000   0.08494194  0.023465903   -7.2084208     241.0483 
  336000  0.087934954 -0.0038459937   -7.2084201     241.0483 
  337000  0.079888743  0.060580419   -7.2084195     241.0483 
  338000  0.086898611 0.0097621756   -7.2084274     241.0483 
  339000   0.08324115  0.033218936   -7.2084347     241.0483 
  340000  0.084883528  0.025179756    -7.208423     241.0483 
  341000   0.07791993  0.073666978   -7.2084182     241.0483 
  342000   0.08864472 -0.0058318121   -7.2084152     241.0483 
  343000  0.079813589  0.064282209   -7.2084199     241.0483 
  344000  0.086075304  0.016498002   -7.2084341     241.0483 
  345000  0.075466256  0.099882734    -7.208426     241.0483 
  346000  0.086166737  0.008697134   -7.2084355     241.0483 
  347000  0.086341611 0.0074920528   -7.2084349     241.0483 
  348000  0.083652467   0.03117205   -7.2084327     241.0483 
  349000  0.084708319  0.020362646   -7.2084305     241.0483 
  350000  0.086197611  0.011556256    -7.208436     241.0483 
Loop time of 87.7322 on 2 procs for 250000 steps with 256 atoms

Pair  time (%) = 54.5671 (62.1974)
Neigh time (%) = 0.00689399 (0.007858)
Comm  time (%) = 29.1183 (33.19)
Outpt time (%) = 0.0193181 (0.0220194)
Other time (%) = 4.02052 (4.58273)

Nlocal:    128 ave 130 max 126 min
Histogram: 1 0 0 0 0 0 0 0 0 1
Nghost:    1109 ave 1111 max 1107 min
Histogram: 1 0 0 0 0 0 0 0 0 1
Neighs:    5504 ave 5593 max 5415 min
Histogram: 1 0 0 0 0 0 0 0 0 1

Total # of neighbors = 11008
Ave neighs/atom = 43
Neighbor list builds = 12
Dangerous builds = 0
#	run             	10000
	unfix 			1
#------SED-------------------------------------------------------------------------
label loop_fft
variable ifft loop ${num_ffts}
variable ifft loop 1

log 	log_SED_${iseed}_${ifft}.lammps
log 	log_SED_13_${ifft}.lammps
log 	log_SED_13_1.lammps
