
#------------ NVE rescale ---------------------------------------------------------------------	
	velocity 		all create ${T_run} ${seed} rot yes dist gaussian
	velocity 		all create 0.08267367665 ${seed} rot yes dist gaussian
	velocity 		all create 0.08267367665 4444 rot yes dist gaussian
	fix 			1 all nve
	fix 			2 all temp/rescale 1 ${T_run} ${T_run} 0.01 1.0
	fix 			2 all temp/rescale 1 0.08267367665 ${T_run} 0.01 1.0
	fix 			2 all temp/rescale 1 0.08267367665 0.08267367665 0.01 1.0
	timestep		${dt}
	timestep		0.002
	thermo_style  	custom step temp press etotal vol
	thermo			1000
	run             	100000	
Memory usage per processor = 1.36469 Mbytes
Step Temp Press TotEng Volume 
       0  0.082673677  -0.71664588   -7.3350923     241.0483 
    1000  0.081531188  0.032555413   -7.2147002     241.0483 
    2000  0.073278085   0.10165906   -7.2143614     241.0483 
    3000  0.080329376  0.036615189   -7.2143628     241.0483 
    4000  0.083606539 0.0039008907   -7.2143673     241.0483 
    5000  0.082788157  0.012431842   -7.2143572     241.0483 
    6000  0.082162291   0.01708341   -7.2143598     241.0483 
    7000   0.08180719  0.020776626   -7.2140963     241.0483 
    8000  0.083517013 0.0015276582   -7.2140864     241.0483 
    9000  0.076514909  0.059844639   -7.2140826     241.0483 
   10000  0.079210811  0.043945563   -7.2140849     241.0483 
   11000  0.084205345 0.0028930219   -7.2140924     241.0483 
   12000  0.084712785 -0.010741028   -7.2140754     241.0483 
   13000  0.086249293 -0.014130949   -7.2140783     241.0483 
   14000  0.079707592  0.032704779   -7.2140801     241.0483 
   15000    0.0843794 -0.0058560275   -7.2140898     241.0483 
   16000  0.084856064 -0.0064991281   -7.2140877     241.0483 
   17000  0.079864058  0.031120771   -7.2140878     241.0483 
   18000  0.081168206  0.029351488   -7.2140851     241.0483 
   19000  0.083638168 0.0089096541   -7.2140849     241.0483 
   20000  0.082528422  0.010254647   -7.2140912     241.0483 
   21000  0.076919398  0.057260815   -7.2140827     241.0483 
   22000   0.08014564  0.028663783   -7.2140765     241.0483 
   23000  0.083957187 -0.004714379   -7.2140801     241.0483 
   24000   0.08538247  -0.01491729   -7.2140779     241.0483 
   25000  0.083333269 0.0019824252   -7.2140782     241.0483 
   26000  0.085928846  0.074308547   -7.1989498     241.0483 
   27000  0.082096026  0.015339729   -7.2143872     241.0483 
   28000  0.086020164 -0.018951806   -7.2143979     241.0483 
   29000  0.082805906 0.00016888908   -7.2143931     241.0483 
   30000  0.082476061 0.0014663169   -7.2143894     241.0483 
   31000  0.080381034  0.022357623   -7.2143889     241.0483 
   32000  0.085024882 -0.014109236    -7.214397     241.0483 
   33000  0.074709372  0.065949312   -7.2144025     241.0483 
   34000  0.085143484 -0.015284636   -7.2144014     241.0483 
   35000  0.080831534  0.018583868   -7.2143981     241.0483 
   36000  0.079154733  0.026433719   -7.2143878     241.0483 
   37000  0.085629677  -0.01620469   -7.2143914     241.0483 
   38000  0.084163789  0.087703406   -7.1993341     241.0483 
   39000  0.078198408  0.041658828   -7.2142787     241.0483 
   40000  0.083779632 -0.0011733094   -7.2142784     241.0483 
   41000  0.083628675 0.00033876592   -7.2142821     241.0483 
   42000  0.084652074 -0.0090868724   -7.2142797     241.0483 
   43000  0.076554749  0.051396385   -7.2142748     241.0483 
   44000   0.07780825  0.038548163   -7.2142803     241.0483 
   45000   0.08108959  0.015926416   -7.2142757     241.0483 
   46000  0.085707665 -0.015734614   -7.2142777     241.0483 
   47000  0.078410363  0.043239611   -7.2142757     241.0483 
   48000  0.083373919 0.0027903708   -7.2142706     241.0483 
   49000  0.085131245 -0.011705386   -7.2142794     241.0483 
   50000  0.079389227  0.035024223   -7.2142694     241.0483 
   51000   0.08555488  0.077246305   -7.1984895     241.0483 
   52000  0.084639775 -0.0080201035   -7.2135431     241.0483 
   53000  0.084919844 -0.006711759   -7.2135405     241.0483 
   54000  0.081789589  0.016115707   -7.2135326     241.0483 
   55000  0.082995739 0.0049650154   -7.2135465     241.0483 
   56000  0.080462937  0.027178109   -7.2135398     241.0483 
   57000  0.081524112  0.018015338   -7.2135376     241.0483 
   58000  0.084501526 -0.0065709816   -7.2135349     241.0483 
   59000  0.080490757  0.024944093   -7.2135272     241.0483 
   60000  0.080737897  0.026101384    -7.213532     241.0483 
   61000  0.085205326 -0.013712485    -7.213533     241.0483 
   62000  0.082529877 0.0081962649   -7.2135336     241.0483 
   63000  0.081767937  0.013413359   -7.2135341     241.0483 
   64000  0.081620156  0.019645765   -7.2135305     241.0483 
   65000  0.085496859 -0.0066658112    -7.213351     241.0483 
   66000  0.082257134  0.011460016   -7.2131087     241.0483 
   67000   0.08167464  0.017142727    -7.213111     241.0483 
   68000  0.077429198  0.054979764   -7.2130999     241.0483 
   69000  0.085316054 -0.011298512   -7.2131058     241.0483 
   70000  0.086166378 -0.018856454   -7.2131084     241.0483 
   71000  0.084503697 -0.0057271318   -7.2131153     241.0483 
   72000  0.082845223 0.0084142849   -7.2131305     241.0483 
   73000    0.0835378 0.0058939577   -7.2131228     241.0483 
   74000  0.079786291  0.033392573   -7.2131185     241.0483 
   75000  0.082466316  0.017452405   -7.2131153     241.0483 
   76000  0.083660235 0.0075026397   -7.2131114     241.0483 
   77000  0.082896318  0.014126463   -7.2131073     241.0483 
   78000  0.085571229 -0.013862564   -7.2131096     241.0483 
   79000  0.083292584 0.0057149366    -7.213112     241.0483 
   80000  0.081245337  0.022453158   -7.2131107     241.0483 
   81000  0.082403472  0.016517314   -7.2130995     241.0483 
   82000  0.084414071 0.0019820739   -7.2130992     241.0483 
   83000  0.083960317  0.003204342   -7.2131007     241.0483 
   84000  0.079091588  0.041093765   -7.2130925     241.0483 
   85000  0.083713136 0.0017243772   -7.2130933     241.0483 
   86000    0.0855314 -0.015500488   -7.2130957     241.0483 
   87000  0.083474417 0.0071629701   -7.2130932     241.0483 
   88000   0.08166356  0.024097908   -7.2130895     241.0483 
   89000  0.085394521 -0.0085978227   -7.2130957     241.0483 
   90000  0.081559329  0.016025833   -7.2130842     241.0483 
   91000  0.081052727  0.022776106   -7.2130922     241.0483 
   92000  0.075129342  0.071027237    -7.213092     241.0483 
   93000  0.086853122 -0.026267544    -7.213098     241.0483 
   94000  0.081921338  0.018390418    -7.213096     241.0483 
   95000  0.081881575  0.018097269    -7.213106     241.0483 
   96000  0.080475957  0.027147755   -7.2130963     241.0483 
   97000  0.080685217  0.028392235   -7.2130951     241.0483 
   98000  0.078198854  0.047740464   -7.2131018     241.0483 
   99000  0.082252567  0.015408514   -7.2131167     241.0483 
  100000  0.082531414  0.012692141   -7.2131096     241.0483 
Loop time of 32.6849 on 2 procs for 100000 steps with 256 atoms

Pair  time (%) = 21.767 (66.5964)
Neigh time (%) = 0 (0)
Comm  time (%) = 9.22307 (28.2181)
Outpt time (%) = 0.00359774 (0.0110073)
Other time (%) = 1.69128 (5.17449)

Nlocal:    128 ave 128 max 128 min
Histogram: 2 0 0 0 0 0 0 0 0 0
Nghost:    1109 ave 1109 max 1109 min
Histogram: 2 0 0 0 0 0 0 0 0 0
Neighs:    5504 ave 5504 max 5504 min
Histogram: 2 0 0 0 0 0 0 0 0 0

Total # of neighbors = 11008
Ave neighs/atom = 43
Neighbor list builds = 0
Dangerous builds = 0
#	run             	1000
	unfix 			1
	unfix 			2
#------------ NVE -----------------------------------------------------------------------------	
	fix 			1 all nve
	timestep		${dt}
	timestep		0.002
	thermo_style  	custom step temp press etotal vol
	thermo			1000
	run             	250000	
Memory usage per processor = 1.36469 Mbytes
Step Temp Press TotEng Volume 
  100000  0.082531414  0.012692141   -7.2131096     241.0483 
  101000  0.082183658   0.01751863   -7.2131136     241.0483 
  102000  0.076008816  0.064095028    -7.213113     241.0483 
  103000  0.086431589 -0.017856136   -7.2131217     241.0483 
  104000  0.081165394  0.023990689   -7.2131252     241.0483 
  105000  0.084928879 -0.005615185   -7.2131273     241.0483 
  106000   0.08068021  0.024197874   -7.2131275     241.0483 
  107000  0.084807411 -0.0041580738   -7.2131259     241.0483 
  108000   0.08271717  0.010270913    -7.213128     241.0483 
  109000   0.07916919  0.041599073   -7.2131274     241.0483 
  110000  0.081833045  0.018962107   -7.2131248     241.0483 
  111000  0.080621469  0.029536912   -7.2131371     241.0483 
  112000  0.082503607 0.0097399718   -7.2131418     241.0483 
  113000  0.085728707 -0.013632457    -7.213155     241.0483 
  114000   0.08213796  0.012442085   -7.2131576     241.0483 
  115000  0.079777925  0.033131762   -7.2131534     241.0483 
  116000  0.078745694  0.040388699    -7.213161     241.0483 
  117000  0.082642377 0.0091613836   -7.2131657     241.0483 
  118000  0.083441793 0.0048971753   -7.2131621     241.0483 
  119000   0.08640366 -0.020902066   -7.2131613     241.0483 
  120000   0.07891735  0.037956958   -7.2131528     241.0483 
  121000  0.082697232   0.01355025   -7.2131609     241.0483 
  122000  0.085717411 -0.010291555   -7.2131603     241.0483 
  123000  0.083473558 0.0058729628   -7.2131486     241.0483 
  124000  0.084046888 0.00025998596   -7.2131535     241.0483 
  125000  0.081472919  0.019120992   -7.2131485     241.0483 
  126000  0.083128545 0.0079866197   -7.2131479     241.0483 
  127000  0.084800046 -0.0099494706   -7.2131515     241.0483 
  128000  0.084982307 -0.008440162   -7.2131544     241.0483 
  129000   0.08243246 0.0095688005   -7.2131429     241.0483 
  130000  0.082124138  0.011479018   -7.2131372     241.0483 
  131000  0.081045213   0.01756036   -7.2131345     241.0483 
  132000  0.078147554   0.04808729   -7.2131318     241.0483 
  133000  0.083431998 0.0092205778   -7.2131473     241.0483 
  134000  0.079456259  0.037509514   -7.2131408     241.0483 
  135000  0.081850251  0.015873268   -7.2131432     241.0483 
  136000  0.083683142  0.003247965   -7.2131432     241.0483 
  137000  0.081011811  0.025093186   -7.2131374     241.0483 
  138000  0.075607214  0.067470739   -7.2131329     241.0483 
  139000  0.086547854 -0.021314442   -7.2131384     241.0483 
  140000  0.083981645 -0.0010556635   -7.2131335     241.0483 
  141000  0.082158261  0.012471541   -7.2131402     241.0483 
  142000  0.079982195  0.032034527   -7.2131447     241.0483 
  143000  0.077861811  0.046895682   -7.2131319     241.0483 
  144000   0.08362798 -0.00098635525   -7.2131337     241.0483 
  145000  0.086672646 -0.021438978   -7.2131347     241.0483 
  146000  0.085370115 -0.013154282   -7.2131305     241.0483 
  147000  0.086421381 -0.016433418   -7.2131374     241.0483 
  148000  0.080086738  0.031208951   -7.2131397     241.0483 
  149000  0.081627345  0.019087196   -7.2131429     241.0483 
  150000  0.085999997 -0.017849777   -7.2131402     241.0483 
  151000  0.083412134 0.0034976318   -7.2131411     241.0483 
  152000  0.084994566 -0.0038183083   -7.2131347     241.0483 
  153000  0.082185378  0.012887006   -7.2131232     241.0483 
  154000  0.083922352 0.00087847082   -7.2131226     241.0483 
  155000  0.083079834 0.0095026806   -7.2131265     241.0483 
  156000  0.082667664  0.015821613    -7.213133     241.0483 
  157000  0.080477938   0.02912498   -7.2131348     241.0483 
  158000  0.085973483 -0.015592136   -7.2131434     241.0483 
  159000  0.078032536  0.050120148   -7.2131515     241.0483 
  160000  0.083186936 0.0069485688   -7.2131556     241.0483 
  161000  0.085772481 -0.014062192   -7.2131559     241.0483 
  162000  0.082316164  0.015418917   -7.2131554     241.0483 
  163000  0.077801058  0.055085372   -7.2131529     241.0483 
  164000  0.084053263 0.0028848399   -7.2131518     241.0483 
  165000   0.08479755 -0.0013242395   -7.2131553     241.0483 
  166000  0.079482552  0.039167046   -7.2131498     241.0483 
  167000  0.082289007  0.020326162   -7.2131664     241.0483 
  168000  0.082724387  0.020423591   -7.2131567     241.0483 
  169000  0.083330854  0.010448927   -7.2131531     241.0483 
  170000  0.082958085  0.009743764   -7.2131499     241.0483 
  171000  0.083894845 0.0067104822   -7.2131597     241.0483 
  172000  0.081814912  0.020212843   -7.2131645     241.0483 
  173000  0.087304528 -0.024911262   -7.2131674     241.0483 
  174000  0.081799865  0.017163391   -7.2131544     241.0483 
  175000  0.080913462  0.025623545   -7.2131464     241.0483 
  176000  0.090505684 -0.046778188   -7.2131559     241.0483 
  177000   0.07773702  0.058364927   -7.2131402     241.0483 
  178000   0.08098353  0.028864658   -7.2131511     241.0483 
  179000  0.082713014  0.012992289   -7.2131535     241.0483 
  180000  0.087821402 -0.026799375    -7.213159     241.0483 
  181000  0.080064418  0.037674712   -7.2131485     241.0483 
  182000   0.08514723 -0.0056574356   -7.2131538     241.0483 
  183000  0.079579695  0.036158192   -7.2131488     241.0483 
  184000  0.081573783  0.024647348   -7.2131408     241.0483 
  185000  0.083178016  0.011257593   -7.2131344     241.0483 
  186000  0.086573279 -0.016984268    -7.213136     241.0483 
  187000  0.083017333  0.011445522   -7.2131314     241.0483 
  188000  0.085625379 -0.0073676903   -7.2131401     241.0483 
  189000  0.077759865  0.057526117   -7.2131362     241.0483 
  190000  0.079491805   0.04139325   -7.2131276     241.0483 
  191000  0.084243276 0.0028422294   -7.2131312     241.0483 
  192000  0.080861826  0.029594256   -7.2131269     241.0483 
  193000   0.08587164 -0.0083621191     -7.21313     241.0483 
  194000  0.085405558 -0.006364124   -7.2131367     241.0483 
  195000  0.077628247     0.052583   -7.2131416     241.0483 
  196000  0.081638051  0.025109857   -7.2131365     241.0483 
  197000  0.083975349 -0.0021132252   -7.2131386     241.0483 
  198000  0.081217871  0.024925357   -7.2131301     241.0483 
  199000  0.081550086  0.021720794   -7.2131218     241.0483 
  200000  0.084721996 -0.0017863382   -7.2131247     241.0483 
  201000  0.080213397  0.024736319   -7.2131188     241.0483 
  202000  0.086808387   -0.0215549   -7.2131142     241.0483 
  203000  0.081739986  0.013640296   -7.2131146     241.0483 
  204000  0.084017787 -0.0046509491   -7.2131096     241.0483 
  205000  0.082227818  0.015205217   -7.2131127     241.0483 
  206000  0.080317962   0.02968496   -7.2131037     241.0483 
  207000  0.085085088 -0.0035800952   -7.2131013     241.0483 
  208000  0.081974782  0.020123605   -7.2131085     241.0483 
  209000  0.081473819  0.017854134   -7.2131143     241.0483 
  210000  0.080284912  0.030081073   -7.2131147     241.0483 
  211000    0.0815043  0.024851698   -7.2131191     241.0483 
  212000  0.084186949 0.0029271061   -7.2131188     241.0483 
  213000  0.085809156 -0.013848843   -7.2131176     241.0483 
  214000   0.08299471 0.0074800008   -7.2131076     241.0483 
  215000  0.084721809 -0.0050488463   -7.2131031     241.0483 
  216000  0.084286985 -0.0031104504   -7.2130935     241.0483 
  217000  0.078343127   0.04537928   -7.2130874     241.0483 
  218000  0.081003044  0.027441377   -7.2130909     241.0483 
  219000  0.082115613  0.012273996   -7.2130958     241.0483 
  220000  0.081666027  0.018099477   -7.2130921     241.0483 
  221000  0.080223388  0.033241741   -7.2130921     241.0483 
  222000  0.085131897 -0.0087610087   -7.2130867     241.0483 
  223000  0.083983485 -0.00027576959   -7.2130858     241.0483 
  224000   0.08194256  0.011503068    -7.213081     241.0483 
  225000  0.083812567 0.0023777142    -7.213085     241.0483 
  226000  0.080968151  0.024739518   -7.2130829     241.0483 
  227000  0.078538468  0.048564297   -7.2130842     241.0483 
  228000  0.079538649   0.03530394   -7.2130855     241.0483 
  229000  0.082380274  0.010858217   -7.2130869     241.0483 
  230000  0.086718772 -0.022312172   -7.2130959     241.0483 
  231000  0.082595044 0.0088473364   -7.2131038     241.0483 
  232000  0.081174434  0.023380631   -7.2131044     241.0483 
  233000  0.082736116 0.0098741593   -7.2131005     241.0483 
  234000  0.081819355  0.015459021   -7.2131013     241.0483 
  235000  0.082859905  0.013578221   -7.2131005     241.0483 
  236000  0.083528733  0.004852264   -7.2130952     241.0483 
  237000  0.079591381  0.039078789   -7.2130997     241.0483 
  238000  0.085699284 -0.014241886   -7.2131141     241.0483 
  239000  0.082929771 0.0094733825    -7.213113     241.0483 
  240000  0.085538253 -0.014058455   -7.2131184     241.0483 
  241000  0.078830258  0.042524306   -7.2131153     241.0483 
  242000  0.082876224  0.012165625    -7.213116     241.0483 
  243000   0.08078376  0.025331535   -7.2131114     241.0483 
  244000  0.081939676  0.013881023   -7.2131099     241.0483 
  245000  0.085332001 -0.0069822176   -7.2131071     241.0483 
  246000  0.078569095  0.039820536   -7.2131074     241.0483 
  247000  0.086150494 -0.016346759    -7.213114     241.0483 
  248000  0.083845595 -0.0011741074   -7.2131142     241.0483 
  249000  0.077591069  0.048682662   -7.2131176     241.0483 
  250000  0.075831334  0.062537719   -7.2131243     241.0483 
  251000  0.086932899 -0.021137332     -7.21313     241.0483 
  252000  0.083525422 -0.00050444704   -7.2131342     241.0483 
  253000  0.083800312 0.00059421896     -7.21314     241.0483 
  254000   0.07820697  0.046854551   -7.2131194     241.0483 
  255000   0.08396187 0.0050409511   -7.2131198     241.0483 
  256000  0.086121011 -0.014526509   -7.2131203     241.0483 
  257000  0.079654363  0.030421434   -7.2131214     241.0483 
  258000  0.081324752  0.025501555   -7.2131306     241.0483 
  259000  0.082428697  0.015686322   -7.2131376     241.0483 
  260000  0.078023731  0.044951902   -7.2131302     241.0483 
  261000  0.081904299  0.017089391   -7.2131269     241.0483 
  262000  0.085076364 -0.011257195   -7.2131262     241.0483 
  263000  0.087553597 -0.029379779   -7.2131261     241.0483 
  264000  0.083827731 0.0055878153   -7.2131149     241.0483 
  265000  0.079664492  0.036684939   -7.2131137     241.0483 
  266000  0.081259221   0.02052739   -7.2131114     241.0483 
  267000  0.075974976  0.063797836   -7.2131092     241.0483 
  268000  0.084013841 0.00092229548    -7.213115     241.0483 
  269000  0.087873431 -0.029810752   -7.2131209     241.0483 
  270000  0.078082347  0.045339395   -7.2131168     241.0483 
  271000  0.081109057  0.017810747   -7.2131213     241.0483 
  272000  0.076869994  0.064974838   -7.2131176     241.0483 
  273000  0.085587155 -0.0089203737   -7.2131381     241.0483 
  274000  0.085313269 -0.0094845463   -7.2131404     241.0483 
  275000   0.08419479 -0.0034040572   -7.2131461     241.0483 
  276000  0.083563845 0.0029521153   -7.2131367     241.0483 
  277000  0.082759114  0.012132501   -7.2131363     241.0483 
  278000  0.081647678  0.020886091    -7.213144     241.0483 
  279000  0.085329304 -0.014860666   -7.2131488     241.0483 
  280000  0.080975493  0.018831697   -7.2131431     241.0483 
  281000  0.090715914 -0.050287795   -7.2131567     241.0483 
  282000  0.078020285  0.056221236   -7.2131567     241.0483 
  283000  0.087714364 -0.025388302   -7.2131635     241.0483 
  284000  0.085537469 -0.0080097905   -7.2131573     241.0483 
  285000  0.086410698 -0.014493539   -7.2131521     241.0483 
  286000  0.078049597  0.050602558   -7.2131396     241.0483 
  287000  0.088999816   -0.0396951    -7.213142     241.0483 
  288000   0.08376743 0.0036674718    -7.213127     241.0483 
  289000  0.085100338 -0.0072753895   -7.2131298     241.0483 
  290000  0.080084054  0.031484215   -7.2131265     241.0483 
  291000  0.085298964 -0.0038664702   -7.2131376     241.0483 
  292000   0.08397924 0.0018705413   -7.2131461     241.0483 
  293000  0.084038956 -0.0037868698   -7.2131537     241.0483 
  294000  0.082504016  0.012975112   -7.2131627     241.0483 
  295000  0.082909649  0.012710312    -7.213168     241.0483 
  296000  0.082029647  0.013502788   -7.2131551     241.0483 
  297000  0.087837426  -0.03360022   -7.2131505     241.0483 
  298000  0.083004061  0.009347181   -7.2131501     241.0483 
  299000  0.080699656     0.031263   -7.2131506     241.0483 
  300000  0.076191492  0.060616842   -7.2131421     241.0483 
  301000  0.087007015 -0.025537068   -7.2131472     241.0483 
  302000  0.080181818  0.026942762   -7.2131314     241.0483 
  303000  0.085582364 -0.010649599   -7.2131363     241.0483 
  304000   0.08400038 -0.0019786247   -7.2131317     241.0483 
  305000  0.078562963  0.047922413   -7.2131264     241.0483 
  306000  0.079528029  0.041276684   -7.2131161     241.0483 
  307000  0.076796325  0.062195882   -7.2131052     241.0483 
  308000  0.083789636 -0.00044105279   -7.2131198     241.0483 
  309000  0.084273865 -0.0058848106   -7.2131131     241.0483 
  310000    0.0848794 -0.0095175277   -7.2131145     241.0483 
  311000  0.080519231  0.028398052   -7.2131122     241.0483 
  312000  0.079989975  0.029842335   -7.2131095     241.0483 
  313000  0.082401556 0.0065221128   -7.2131076     241.0483 
  314000  0.081305427  0.020313188   -7.2131066     241.0483 
  315000  0.080508007  0.025186822   -7.2131001     241.0483 
  316000  0.087805173  -0.02938638   -7.2131025     241.0483 
  317000  0.077548706  0.054113173   -7.2130925     241.0483 
  318000  0.084044003 -3.4732152e-05   -7.2130867     241.0483 
  319000  0.082675892 0.0079541782   -7.2130884     241.0483 
  320000  0.086834998  -0.02636966   -7.2130861     241.0483 
  321000  0.076214803  0.061539127   -7.2130823     241.0483 
  322000  0.083571696 0.0029040244   -7.2130929     241.0483 
  323000  0.080115784  0.030692829   -7.2130898     241.0483 
  324000  0.086995549 -0.024431743    -7.213096     241.0483 
  325000  0.080675187  0.024532943   -7.2130986     241.0483 
  326000  0.082204968  0.014545171   -7.2130998     241.0483 
  327000  0.077715929  0.053250223   -7.2130957     241.0483 
  328000  0.082813455  0.010439466   -7.2130983     241.0483 
  329000  0.082986229 0.0049375902    -7.213091     241.0483 
  330000  0.082281866  0.011715809   -7.2130893     241.0483 
  331000  0.083361611 0.0093672544   -7.2130844     241.0483 
  332000  0.083468112 0.0084771776   -7.2130832     241.0483 
  333000  0.079925384  0.034788808   -7.2130773     241.0483 
  334000  0.088409476 -0.028524644   -7.2130773     241.0483 
  335000  0.084848543 -0.0054615557   -7.2130844     241.0483 
  336000  0.084030795 -0.00092337566   -7.2130836     241.0483 
  337000  0.080987629  0.023364636   -7.2130921     241.0483 
  338000  0.079975971  0.029611791   -7.2130904     241.0483 
  339000   0.08359201 0.0049521895   -7.2130904     241.0483 
  340000  0.083066969  0.010488952   -7.2130847     241.0483 
  341000  0.083487692 0.0048464084    -7.213084     241.0483 
  342000  0.087617884 -0.028237523   -7.2130887     241.0483 
  343000  0.087709351 -0.029928057   -7.2130856     241.0483 
  344000  0.081679386  0.016117118   -7.2130785     241.0483 
  345000  0.083173685  0.006546178   -7.2130819     241.0483 
  346000  0.080549729  0.032978722    -7.213076     241.0483 
  347000  0.078081217  0.047628312   -7.2130725     241.0483 
  348000  0.079782383  0.037617495   -7.2130642     241.0483 
  349000  0.083007939 0.0078850007   -7.2130626     241.0483 
  350000  0.086498119 -0.019749647   -7.2130702     241.0483 
Loop time of 81.6993 on 2 procs for 250000 steps with 256 atoms

Pair  time (%) = 54.9696 (67.2829)
Neigh time (%) = 0.0096854 (0.0118549)
Comm  time (%) = 23.0508 (28.2142)
Outpt time (%) = 0.00829732 (0.0101559)
Other time (%) = 3.66089 (4.48093)

Nlocal:    128 ave 133 max 123 min
Histogram: 1 0 0 0 0 0 0 0 0 1
Nghost:    1109 ave 1114 max 1104 min
Histogram: 1 0 0 0 0 0 0 0 0 1
Neighs:    5504 ave 5723 max 5285 min
Histogram: 1 0 0 0 0 0 0 0 0 1

Total # of neighbors = 11008
Ave neighs/atom = 43
Neighbor list builds = 17
Dangerous builds = 0
#	run             	10000
	unfix 			1
#------SED-------------------------------------------------------------------------
label loop_fft
variable ifft loop ${num_ffts}
variable ifft loop 1

log 	log_SED_${iseed}_${ifft}.lammps
log 	log_SED_4_${ifft}.lammps
log 	log_SED_4_1.lammps
