	reset_timestep  	0
	fix 			1 all nve
	dump 			vel all custom ${w_step} dump_${iseed}_${ifft}.vel vx vy vz
	dump 			vel all custom 32 dump_${iseed}_${ifft}.vel vx vy vz
	dump 			vel all custom 32 dump_11_${ifft}.vel vx vy vz
	dump 			vel all custom 32 dump_11_1.vel vx vy vz
	dump_modify 		vel sort id
	dump 			pos all custom ${w_step} dump_${iseed}_${ifft}.pos xu yu zu
	dump 			pos all custom 32 dump_${iseed}_${ifft}.pos xu yu zu
	dump 			pos all custom 32 dump_11_${ifft}.pos xu yu zu
	dump 			pos all custom 32 dump_11_1.pos xu yu zu
	dump_modify 		pos sort id
	thermo_style 		custom step temp press vol
	thermo			5000
	timestep		${dt}
	timestep		0.002
	run			${w_total}
	run			131072
Memory usage per processor = 1.6431 Mbytes
Step Temp Press Volume 
       0  0.084681674 -0.0068804937     241.0483 
    5000  0.080277734  0.032230676     241.0483 
   10000  0.084723179 -0.0053433513     241.0483 
   15000  0.084368688 -0.0026821478     241.0483 
   20000  0.083919094  0.004126115     241.0483 
   25000  0.079543399  0.034091534     241.0483 
   30000  0.087379472 -0.025795277     241.0483 
   35000  0.080957887  0.024646203     241.0483 
   40000  0.080871284  0.022342117     241.0483 
   45000    0.0843774 0.0017224775     241.0483 
   50000  0.077676455  0.056559616     241.0483 
   55000  0.085092275 -0.0084223323     241.0483 
   60000  0.079573605  0.033937912     241.0483 
   65000  0.080285889   0.02626985     241.0483 
   70000  0.086956331 -0.022563539     241.0483 
   75000  0.082476324  0.010237417     241.0483 
   80000  0.080734051  0.029224446     241.0483 
   85000  0.083556228 0.0022232338     241.0483 
   90000  0.084567287 -0.0062272761     241.0483 
   95000  0.080565959  0.030769176     241.0483 
  100000  0.078272262  0.042957278     241.0483 
  105000  0.082866601  0.013376385     241.0483 
  110000  0.083747979 0.0062628372     241.0483 
  115000  0.080626795  0.034638673     241.0483 
  120000  0.086351292 -0.016995413     241.0483 
  125000  0.083240073 0.0066645264     241.0483 
  130000  0.084937602 -0.0052169462     241.0483 
  131072  0.084767492 -0.0044574168     241.0483 
Loop time of 67.8452 on 2 procs for 131072 steps with 256 atoms

Pair  time (%) = 29.0141 (42.7652)
Neigh time (%) = 0.00349236 (0.00514754)
Comm  time (%) = 14.7389 (21.7243)
Outpt time (%) = 14.2765 (21.0427)
Other time (%) = 9.81221 (14.4627)

Nlocal:    128 ave 130 max 126 min
Histogram: 1 0 0 0 0 0 0 0 0 1
Nghost:    1109 ave 1111 max 1107 min
Histogram: 1 0 0 0 0 0 0 0 0 1
Neighs:    5504 ave 5588 max 5420 min
Histogram: 1 0 0 0 0 0 0 0 0 1

Total # of neighbors = 11008
Ave neighs/atom = 43
Neighbor list builds = 6
Dangerous builds = 0
	unfix			1
	undump			vel
	undump			pos

next ifft
jump lmp.in.sed.11 loop_fft

